FCHK created with read_scan from butadiene_scan.fchk
Scan      RB3LYP                                                      6-31G(d)  
Number of atoms                            I               10
Charge                                     I                0
Multiplicity                               I                1
Atomic numbers                             I   N=          10
           6           1           6           1           6           1
           1           6           1           1
Nuclear charges                            R   N=          10
  6.00000000E+00  1.00000000E+00  6.00000000E+00  1.00000000E+00  6.00000000E+00
  1.00000000E+00  1.00000000E+00  6.00000000E+00  1.00000000E+00  1.00000000E+00
Current cartesian coordinates              R   N=          30
  1.25510939E+00  6.72549535E-01  5.75166724E-01  1.43010124E+00  2.45349715E+00
  1.60093745E+00 -1.25398671E+00 -5.87388357E-01  6.56749762E-01 -1.36578997E+00
 -2.34170901E+00  1.73504461E+00 -3.30914605E+00  2.32062697E-01 -5.55223499E-01
 -3.28931274E+00  1.95118827E+00 -1.68187222E+00 -5.09135629E+00 -7.83817168E-01
 -4.55138498E-01  3.30209047E+00 -2.96097517E-01 -5.36432698E-01  3.24521214E+00
 -2.08958185E+00 -1.53924806E+00  5.10674300E+00  6.83664459E-01 -5.01285019E-01
Integer atomic weights                     I   N=          30
           1           0           0           1           2           1
          -1           0           0          -1          -2           1
          -3           0           0          -3           1          -1
          -5           0           0           3           0           0
           3          -2          -1           5           0           0
Real atomic weights                        R   N=          30
  1.25510939E+00  6.72549535E-01  5.75166724E-01  1.43010124E+00  2.45349715E+00
  1.60093745E+00 -1.25398671E+00 -5.87388357E-01  6.56749762E-01 -1.36578997E+00
 -2.34170901E+00  1.73504461E+00 -3.30914605E+00  2.32062697E-01 -5.55223499E-01
 -3.28931274E+00  1.95118827E+00 -1.68187222E+00 -5.09135629E+00 -7.83817168E-01
 -4.55138498E-01  3.30209047E+00 -2.96097517E-01 -5.36432698E-01  3.24521214E+00
 -2.08958185E+00 -1.53924806E+00  5.10674300E+00  6.83664459E-01 -5.01285019E-01
Total Energy                               R     -1.559805000000000E+02
Cartesian Gradient                         R   N=          30
 -8.88300514E-03  4.13704521E-03 -2.30021541E-02  4.07499480E-03 -4.95252443E-03
  8.55254427E-03  2.35441564E-03  7.95422632E-03  2.28246161E-02 -8.83116533E-04
 -1.60962612E-03 -4.89596984E-03  1.95173041E-03 -4.71424728E-03 -6.22472481E-03
  2.31892045E-04 -1.65527693E-05 -3.53642223E-04  3.90603883E-04 -2.39805340E-04
 -6.41129978E-04  7.06446534E-04 -7.06111264E-05  2.60258283E-03 -8.66770762E-05
 -2.36236473E-04  6.19967125E-04  1.42715436E-04 -2.51667986E-04  5.17910629E-04
