FCHK created with read_scan from butadiene_scan.fchk
Scan      RB3LYP                                                      6-31G(d)  
Number of atoms                            I               10
Charge                                     I                0
Multiplicity                               I                1
Atomic numbers                             I   N=          10
           6           1           6           1           6           1
           1           6           1           1
Nuclear charges                            R   N=          10
  6.00000000E+00  1.00000000E+00  6.00000000E+00  1.00000000E+00  6.00000000E+00
  1.00000000E+00  1.00000000E+00  6.00000000E+00  1.00000000E+00  1.00000000E+00
Current cartesian coordinates              R   N=          30
  1.32944185E+00  9.24107018E-01 -3.98344232E-01  1.84448263E+00  2.40318865E+00
 -1.74291251E+00 -1.33748889E+00  9.02825651E-01  4.40514462E-01 -1.96072978E+00
  2.51994957E+00  1.56215924E+00 -3.04070314E+00 -8.22628079E-01 -2.60919801E-01
 -2.52631802E+00 -2.41148147E+00 -1.45742273E+00 -4.99731124E+00 -7.14611011E-01
  3.54898341E-01  3.05715330E+00 -7.96355255E-01  2.52514071E-01  2.61535524E+00
 -2.31604530E+00  1.56255366E+00  4.97410243E+00 -7.28696453E-01 -4.81862999E-01
Integer atomic weights                     I   N=          30
           1           0           0           1           2          -1
          -1           0           0          -1           2           1
          -3           0           0          -2          -2          -1
          -4           0           0           3           0           0
           2          -2           1           4           0           0
Real atomic weights                        R   N=          30
  1.32944185E+00  9.24107018E-01 -3.98344232E-01  1.84448263E+00  2.40318865E+00
 -1.74291251E+00 -1.33748889E+00  9.02825651E-01  4.40514462E-01 -1.96072978E+00
  2.51994957E+00  1.56215924E+00 -3.04070314E+00 -8.22628079E-01 -2.60919801E-01
 -2.52631802E+00 -2.41148147E+00 -1.45742273E+00 -4.99731124E+00 -7.14611011E-01
  3.54898341E-01  3.05715330E+00 -7.96355255E-01  2.52514071E-01  2.61535524E+00
 -2.31604530E+00  1.56255366E+00  4.97410243E+00 -7.28696453E-01 -4.81862999E-01
Total Energy                               R     -1.559827210000000E+02
Cartesian Gradient                         R   N=          30
 -3.82614929E-04 -7.38945805E-03 -4.17804362E-03  5.22512750E-04  8.35313867E-04
  4.29973063E-04 -1.86772153E-03  7.43167011E-03 -2.07190689E-03  3.88448643E-04
 -3.58306418E-03  3.52666412E-03 -2.80994795E-05  7.01529245E-04 -6.40898636E-04
  1.62801449E-04 -8.15996867E-04  4.64092813E-04  1.08022964E-04 -1.43910082E-04
  2.08137591E-04  6.45144331E-04  2.60812831E-03  1.31084283E-03  1.33325406E-04
  5.89489437E-05  5.29655645E-04  3.18180399E-04  2.96838705E-04  4.21483083E-04
