10
Scan step 5     E=    -155.980500                                                                   
C          0.66418        0.35590        0.30437
H          0.75678        1.29833        0.84718
C         -0.66358       -0.31083        0.34754
H         -0.72274       -1.23918        0.91815
C         -1.75112        0.12280       -0.29381
H         -1.74063        1.03252       -0.89001
H         -2.69423       -0.41478       -0.24085
C          1.74739       -0.15669       -0.28387
H          1.71729       -1.10576       -0.81453
H          2.70237        0.36178       -0.26527
