Butadiene optimization and frequencies                                  
Freq      RB3LYP                                                      6-31G(d)            
Number of atoms                            I               10
Info1-9                                    I   N=           9
          18          17        1002           0           0         100
           6          18        -502
Full Title                                 C   N=           4
Butadiene optimization and frequencies          
Route                                      C   N=           5
# opt=(verytight) b3lyp/6-31g* freq=IntModes Int=Ultrafine  
Charge                                     I                0
Multiplicity                               I                1
Number of electrons                        I               30
Number of alpha electrons                  I               15
Number of beta electrons                   I               15
Number of basis functions                  I               72
Number of independent functions            I               72
Number of point charges in /Mol/           I                0
Number of translation vectors              I                0
Atomic numbers                             I   N=          10
           6           1           6           1           6           1
           1           6           1           1
Nuclear charges                            R   N=          10
  6.00000000E+00  1.00000000E+00  6.00000000E+00  1.00000000E+00  6.00000000E+00
  1.00000000E+00  1.00000000E+00  6.00000000E+00  1.00000000E+00  1.00000000E+00
Current cartesian coordinates              R   N=          30
 -6.16187726E-01  1.23158621E+00  0.00000000E+00 -2.67684585E+00  1.21958827E+00
  0.00000000E+00  6.16187726E-01 -1.23158621E+00  0.00000000E+00  2.67684585E+00
 -1.21958827E+00  0.00000000E+00 -6.16187726E-01 -3.44490599E+00  0.00000000E+00
 -2.67020236E+00 -3.53232021E+00  0.00000000E+00  3.80433217E-01 -5.23847548E+00
  0.00000000E+00  6.16187726E-01  3.44490599E+00  0.00000000E+00  2.67020236E+00
  3.53232021E+00  0.00000000E+00 -3.80433217E-01  5.23847548E+00  0.00000000E+00
Number of symbols in /Mol/                 I                0
Force Field                                I                0
Atom Types                                 C   N=          10
                                                            
                                                            
Int Atom Types                             I   N=          10
           0           0           0           0           0           0
           0           0           0           0
MM charges                                 R   N=          10
  0.00000000E+00  0.00000000E+00  0.00000000E+00  0.00000000E+00  0.00000000E+00
  0.00000000E+00  0.00000000E+00  0.00000000E+00  0.00000000E+00  0.00000000E+00
Integer atomic weights                     I   N=          10
          12           1          12           1          12           1
           1          12           1           1
Real atomic weights                        R   N=          10
  1.20000000E+01  1.00782504E+00  1.20000000E+01  1.00782504E+00  1.20000000E+01
  1.00782504E+00  1.00782504E+00  1.20000000E+01  1.00782504E+00  1.00782504E+00
Atom fragment info                         I   N=          10
           0           0           0           0           0           0
           0           0           0           0
Atom residue num                           I   N=          10
           0           0           0           0           0           0
           0           0           0           0
Nuclear spins                              I   N=          10
           0           1           0           1           0           1
           1           0           1           1
Nuclear ZEff                               R   N=          10
 -3.60000000E+00 -1.00000000E+00 -3.60000000E+00 -1.00000000E+00 -3.60000000E+00
 -1.00000000E+00 -1.00000000E+00 -3.60000000E+00 -1.00000000E+00 -1.00000000E+00
Nuclear ZNuc                               R   N=          10
  6.00000000E+00  1.00000000E+00  6.00000000E+00  1.00000000E+00  6.00000000E+00
  1.00000000E+00  1.00000000E+00  6.00000000E+00  1.00000000E+00  1.00000000E+00
Nuclear QMom                               R   N=          10
  0.00000000E+00  0.00000000E+00  0.00000000E+00  0.00000000E+00  0.00000000E+00
  0.00000000E+00  0.00000000E+00  0.00000000E+00  0.00000000E+00  0.00000000E+00
Nuclear GFac                               R   N=          10
  0.00000000E+00  2.79284600E+00  0.00000000E+00  2.79284600E+00  0.00000000E+00
  2.79284600E+00  2.79284600E+00  0.00000000E+00  2.79284600E+00  2.79284600E+00
MicOpt                                     I   N=          10
          -1          -1          -1          -1          -1          -1
          -1          -1          -1          -1
Number of residues                         I                0
Number of secondary structures             I                0
Redundant internal dimensions              I   N=           4
          33           9          12          12
Redundant internal coordinate indices      I   N=         132
           1           2           0           0           1           3
           0           0           1           8           0           0
           3           4           0           0           3           5
           0           0           5           6           0           0
           5           7           0           0           8           9
           0           0           8          10           0           0
           2           1           3           0           2           1
           8           0           3           1           8           0
           1           3           4           0           1           3
           5           0           4           3           5           0
           3           5           6           0           3           5
           7           0           6           5           7           0
           1           8           9           0           1           8
          10           0           9           8          10           0
           2           1           3           4           2           1
           3           5           8           1           3           4
           8           1           3           5           2           1
           8           9           2           1           8          10
           3           1           8           9           3           1
           8          10           1           3           5           6
           1           3           5           7           4           3
           5           6           4           3           5           7
Redundant internal coordinates             R   N=          33
  2.06069306E+00  2.75426354E+00  2.53328516E+00  2.06069306E+00  2.53328516E+00
  2.05587387E+00  2.05186374E+00  2.05587387E+00  2.05186374E+00  2.02887792E+00
  2.08466724E+00  2.16964014E+00  2.02887792E+00  2.16964014E+00  2.08466724E+00
  2.12137700E+00  2.12636313E+00  2.03544517E+00  2.12137700E+00  2.12636313E+00
  2.03544517E+00  3.14159265E+00  0.00000000E+00  0.00000000E+00  3.14159265E+00
  3.14159265E+00  0.00000000E+00  0.00000000E+00  3.14159265E+00  0.00000000E+00
  3.14159265E+00  3.14159265E+00  0.00000000E+00
ZRed-IntVec                                I   N=          33
           0           0           0           0           0           0
           0           0           0           0           0           0
           0           0           0           0           0           0
           0           0           0           0           0           0
           0           0           0           0           0           0
           0           0           0
ZRed-FPVec                                 R   N=          33
  0.00000000E+00  0.00000000E+00  0.00000000E+00  0.00000000E+00  0.00000000E+00
  0.00000000E+00  0.00000000E+00  0.00000000E+00  0.00000000E+00  0.00000000E+00
  0.00000000E+00  0.00000000E+00  0.00000000E+00  0.00000000E+00  0.00000000E+00
  0.00000000E+00  0.00000000E+00  0.00000000E+00  0.00000000E+00  0.00000000E+00
  0.00000000E+00  0.00000000E+00  0.00000000E+00  0.00000000E+00  0.00000000E+00
  0.00000000E+00  0.00000000E+00  0.00000000E+00  0.00000000E+00  0.00000000E+00
  0.00000000E+00  0.00000000E+00  0.00000000E+00
ZRed-Constraint1                           R   N=          33
  2.06069306E+00  2.75426354E+00  2.53328516E+00  2.06069306E+00  2.53328516E+00
  2.05587387E+00  2.05186374E+00  2.05587387E+00  2.05186374E+00  2.02887792E+00
  2.08466724E+00  2.16964014E+00  2.02887792E+00  2.16964014E+00  2.08466724E+00
  2.12137700E+00  2.12636313E+00  2.03544517E+00  2.12137700E+00  2.12636313E+00
  2.03544517E+00  3.14159265E+00  0.00000000E+00  0.00000000E+00  3.14159265E+00
  3.14159265E+00  0.00000000E+00  0.00000000E+00  3.14159265E+00  0.00000000E+00
  3.14159265E+00  3.14159265E+00  0.00000000E+00
ZRed-Constraint2                           R   N=          33
  2.02200696E+00  2.91017821E+00  2.56095684E+00  2.02200696E+00  2.56095684E+00
  2.02200695E+00  2.02200697E+00  2.02200695E+00  2.02200697E+00  2.09241462E+00
  2.09241462E+00  2.09835606E+00  2.09241462E+00  2.09835606E+00  2.09241462E+00
  2.09835606E+00  2.09241463E+00  2.09241462E+00  2.09835606E+00  2.09241463E+00
  2.09241462E+00  3.14159265E+00  0.00000000E+00  0.00000000E+00  3.14159265E+00
  3.14159265E+00  0.00000000E+00  0.00000000E+00  3.14159265E+00  0.00000000E+00
  3.14159265E+00  3.14159265E+00  0.00000000E+00
SymInf integers                            I   N=          26
           2           4           1           1           1          -1
          -1           1           1           1          -1          -1
          -1          -1           0           0           0           0
           0           0           0           0           0           0
           0           0
RotTr to input orientation                 R   N=          12
  1.01123959E-01 -9.94873834E-01  0.00000000E+00  9.94873834E-01  1.01123959E-01
  0.00000000E+00  0.00000000E+00  0.00000000E+00  1.00000000E+00  2.96059473E-17
 -1.09171931E-15  0.00000000E+00
Number of contracted shells                I               28
Number of primitive shells                 I               68
Pure/Cartesian d shells                    I                1
Pure/Cartesian f shells                    I                0
Highest angular momentum                   I                2
Largest degree of contraction              I                6
Shell types                                I   N=          28
           0          -1          -1           2           0           0
           0          -1          -1           2           0           0
           0          -1          -1           2           0           0
           0           0           0          -1          -1           2
           0           0           0           0
Number of primitives per shell             I   N=          28
           6           3           1           1           3           1
           6           3           1           1           3           1
           6           3           1           1           3           1
           3           1           6           3           1           1
           3           1           3           1
Shell to atom map                          I   N=          28
           1           1           1           1           2           2
           3           3           3           3           4           4
           5           5           5           5           6           6
           7           7           8           8           8           8
           9           9          10          10
Primitive exponents                        R   N=          68
  3.04752488E+03  4.57369518E+02  1.03948685E+02  2.92101553E+01  9.28666296E+00
  3.16392696E+00  7.86827235E+00  1.88128854E+00  5.44249258E-01  1.68714478E-01
  8.00000000E-01  1.87311370E+01  2.82539436E+00  6.40121692E-01  1.61277759E-01
  3.04752488E+03  4.57369518E+02  1.03948685E+02  2.92101553E+01  9.28666296E+00
  3.16392696E+00  7.86827235E+00  1.88128854E+00  5.44249258E-01  1.68714478E-01
  8.00000000E-01  1.87311370E+01  2.82539436E+00  6.40121692E-01  1.61277759E-01
  3.04752488E+03  4.57369518E+02  1.03948685E+02  2.92101553E+01  9.28666296E+00
  3.16392696E+00  7.86827235E+00  1.88128854E+00  5.44249258E-01  1.68714478E-01
  8.00000000E-01  1.87311370E+01  2.82539436E+00  6.40121692E-01  1.61277759E-01
  1.87311370E+01  2.82539436E+00  6.40121692E-01  1.61277759E-01  3.04752488E+03
  4.57369518E+02  1.03948685E+02  2.92101553E+01  9.28666296E+00  3.16392696E+00
  7.86827235E+00  1.88128854E+00  5.44249258E-01  1.68714478E-01  8.00000000E-01
  1.87311370E+01  2.82539436E+00  6.40121692E-01  1.61277759E-01  1.87311370E+01
  2.82539436E+00  6.40121692E-01  1.61277759E-01
Contraction coefficients                   R   N=          68
  1.83473713E-03  1.40373228E-02  6.88426223E-02  2.32184443E-01  4.67941348E-01
  3.62311985E-01 -1.19332420E-01 -1.60854152E-01  1.14345644E+00  1.00000000E+00
  1.00000000E+00  3.34946043E-02  2.34726953E-01  8.13757326E-01  1.00000000E+00
  1.83473713E-03  1.40373228E-02  6.88426223E-02  2.32184443E-01  4.67941348E-01
  3.62311985E-01 -1.19332420E-01 -1.60854152E-01  1.14345644E+00  1.00000000E+00
  1.00000000E+00  3.34946043E-02  2.34726953E-01  8.13757326E-01  1.00000000E+00
  1.83473713E-03  1.40373228E-02  6.88426223E-02  2.32184443E-01  4.67941348E-01
  3.62311985E-01 -1.19332420E-01 -1.60854152E-01  1.14345644E+00  1.00000000E+00
  1.00000000E+00  3.34946043E-02  2.34726953E-01  8.13757326E-01  1.00000000E+00
  3.34946043E-02  2.34726953E-01  8.13757326E-01  1.00000000E+00  1.83473713E-03
  1.40373228E-02  6.88426223E-02  2.32184443E-01  4.67941348E-01  3.62311985E-01
 -1.19332420E-01 -1.60854152E-01  1.14345644E+00  1.00000000E+00  1.00000000E+00
  3.34946043E-02  2.34726953E-01  8.13757326E-01  1.00000000E+00  3.34946043E-02
  2.34726953E-01  8.13757326E-01  1.00000000E+00
P(S=P) Contraction coefficients            R   N=          68
  0.00000000E+00  0.00000000E+00  0.00000000E+00  0.00000000E+00  0.00000000E+00
  0.00000000E+00  6.89990666E-02  3.16423961E-01  7.44308291E-01  1.00000000E+00
  0.00000000E+00  0.00000000E+00  0.00000000E+00  0.00000000E+00  0.00000000E+00
  0.00000000E+00  0.00000000E+00  0.00000000E+00  0.00000000E+00  0.00000000E+00
  0.00000000E+00  6.89990666E-02  3.16423961E-01  7.44308291E-01  1.00000000E+00
  0.00000000E+00  0.00000000E+00  0.00000000E+00  0.00000000E+00  0.00000000E+00
  0.00000000E+00  0.00000000E+00  0.00000000E+00  0.00000000E+00  0.00000000E+00
  0.00000000E+00  6.89990666E-02  3.16423961E-01  7.44308291E-01  1.00000000E+00
  0.00000000E+00  0.00000000E+00  0.00000000E+00  0.00000000E+00  0.00000000E+00
  0.00000000E+00  0.00000000E+00  0.00000000E+00  0.00000000E+00  0.00000000E+00
  0.00000000E+00  0.00000000E+00  0.00000000E+00  0.00000000E+00  0.00000000E+00
  6.89990666E-02  3.16423961E-01  7.44308291E-01  1.00000000E+00  0.00000000E+00
  0.00000000E+00  0.00000000E+00  0.00000000E+00  0.00000000E+00  0.00000000E+00
  0.00000000E+00  0.00000000E+00  0.00000000E+00
Coordinates of each shell                  R   N=          84
 -6.16187726E-01  1.23158621E+00  0.00000000E+00 -6.16187726E-01  1.23158621E+00
  0.00000000E+00 -6.16187726E-01  1.23158621E+00  0.00000000E+00 -6.16187726E-01
  1.23158621E+00  0.00000000E+00 -2.67684585E+00  1.21958827E+00  0.00000000E+00
 -2.67684585E+00  1.21958827E+00  0.00000000E+00  6.16187726E-01 -1.23158621E+00
  0.00000000E+00  6.16187726E-01 -1.23158621E+00  0.00000000E+00  6.16187726E-01
 -1.23158621E+00  0.00000000E+00  6.16187726E-01 -1.23158621E+00  0.00000000E+00
  2.67684585E+00 -1.21958827E+00  0.00000000E+00  2.67684585E+00 -1.21958827E+00
  0.00000000E+00 -6.16187726E-01 -3.44490599E+00  0.00000000E+00 -6.16187726E-01
 -3.44490599E+00  0.00000000E+00 -6.16187726E-01 -3.44490599E+00  0.00000000E+00
 -6.16187726E-01 -3.44490599E+00  0.00000000E+00 -2.67020236E+00 -3.53232021E+00
  0.00000000E+00 -2.67020236E+00 -3.53232021E+00  0.00000000E+00  3.80433217E-01
 -5.23847548E+00  0.00000000E+00  3.80433217E-01 -5.23847548E+00  0.00000000E+00
  6.16187726E-01  3.44490599E+00  0.00000000E+00  6.16187726E-01  3.44490599E+00
  0.00000000E+00  6.16187726E-01  3.44490599E+00  0.00000000E+00  6.16187726E-01
  3.44490599E+00  0.00000000E+00  2.67020236E+00  3.53232021E+00  0.00000000E+00
  2.67020236E+00  3.53232021E+00  0.00000000E+00 -3.80433217E-01  5.23847548E+00
  0.00000000E+00 -3.80433217E-01  5.23847548E+00  0.00000000E+00
Num ILSW                                   I              100
ILSW                                       I   N=         100
           0           1           0           0           2           0
           0           0           0           0         402          -1
           5           0           0           0           2           0
           0           0           1           0           1           0
           1           0           0           0           0           0
           0           0      100000           0          -1           0
           0           0           0           0           0           0
           0           0           0           1           0           0
           0 -2000000000           1           0           0           0
           0           0           4          52           0           0
           0           0           5           0           0           0
           0           0           0           0           0           1
           0           0           0           0           0           0
           0           0           0           0           0           0
           0           0           0           0           0           0
           0           0           0           0           0           0
           0           0           0           0
Num RLSW                                   I               52
RLSW                                       R   N=          52
  8.00000000E-01  7.20000000E-01  1.00000000E+00  8.10000000E-01  2.00000000E-01
  0.00000000E+00  0.00000000E+00  1.00000000E+00  0.00000000E+00  0.00000000E+00
  0.00000000E+00  0.00000000E+00  1.00000000E+00  0.00000000E+00  0.00000000E+00
  0.00000000E+00  0.00000000E+00  1.00000000E+00  0.00000000E+00  0.00000000E+00
  0.00000000E+00  0.00000000E+00  1.00000000E+00  0.00000000E+00  0.00000000E+00
  0.00000000E+00  0.00000000E+00  1.00000000E+00  0.00000000E+00  0.00000000E+00
  0.00000000E+00  0.00000000E+00  1.00000000E+00  0.00000000E+00  0.00000000E+00
  0.00000000E+00  0.00000000E+00  0.00000000E+00  1.00000000E+00  1.00000000E+00
  0.00000000E+00  1.00000000E+00  0.00000000E+00  0.00000000E+00  0.00000000E+00
  0.00000000E+00  0.00000000E+00  0.00000000E+00  0.00000000E+00  0.00000000E+00
  0.00000000E+00  0.00000000E+00
MxBond                                     I                3
NBond                                      I   N=          10
           3           1           3           1           3           1
           1           3           1           1
IBond                                      I   N=          30
           2           3           8           1           0           0
           1           4           5           3           0           0
           3           6           7           5           0           0
           5           0           0           1           9          10
           8           0           0           8           0           0
RBond                                      R   N=          30
  1.00000000E+00  1.00000000E+00  2.00000000E+00  1.00000000E+00  0.00000000E+00
  0.00000000E+00  1.00000000E+00  1.00000000E+00  2.00000000E+00  1.00000000E+00
  0.00000000E+00  0.00000000E+00  2.00000000E+00  1.00000000E+00  1.00000000E+00
  1.00000000E+00  0.00000000E+00  0.00000000E+00  1.00000000E+00  0.00000000E+00
  0.00000000E+00  2.00000000E+00  1.00000000E+00  1.00000000E+00  1.00000000E+00
  0.00000000E+00  0.00000000E+00  1.00000000E+00  0.00000000E+00  0.00000000E+00
Virial Ratio                               R      2.010284274598098E+00
SCF Energy                                 R     -1.559921395668598E+02
Total Energy                               R     -1.559921395668598E+02
RMS Force                                  R      1.924591782169241E-07
RMS Density                                R      3.675671787328824E-09
NImag                                      I                0
Job Status                                 I                1
Nuclear derivative order                   I                2
External E-field                           R   N=          35
  0.00000000E+00  0.00000000E+00  0.00000000E+00  0.00000000E+00  0.00000000E+00
  0.00000000E+00  0.00000000E+00  0.00000000E+00  0.00000000E+00  0.00000000E+00
  0.00000000E+00  0.00000000E+00  0.00000000E+00  0.00000000E+00  0.00000000E+00
  0.00000000E+00  0.00000000E+00  0.00000000E+00  0.00000000E+00  0.00000000E+00
  0.00000000E+00  0.00000000E+00  0.00000000E+00  0.00000000E+00  0.00000000E+00
  0.00000000E+00  0.00000000E+00  0.00000000E+00  0.00000000E+00  0.00000000E+00
  0.00000000E+00  0.00000000E+00  0.00000000E+00  0.00000000E+00  0.00000000E+00
IOpCl                                      I                0
IROHF                                      I                0
Alpha Orbital Energies                     R   N=          72
 -1.01924415E+01 -1.01920961E+01 -1.01837861E+01 -1.01837860E+01 -8.01438789E-01
 -7.29636227E-01 -6.03089982E-01 -5.50380459E-01 -4.63935015E-01 -4.59158154E-01
 -3.91353548E-01 -3.84934568E-01 -3.44349508E-01 -3.19817596E-01 -2.29015104E-01
 -2.24959496E-02  8.54617368E-02  1.15544906E-01  1.25660707E-01  1.30739804E-01
  1.74880979E-01  1.92531831E-01  2.11947047E-01  3.25203432E-01  3.36741238E-01
  3.97277096E-01  4.72036247E-01  5.16718937E-01  5.30249295E-01  5.77922467E-01
  6.07889060E-01  6.26965300E-01  6.62538894E-01  6.71136709E-01  6.71422162E-01
  6.93326914E-01  8.43734224E-01  8.57853138E-01  8.63861995E-01  8.88488320E-01
  9.38703375E-01  9.45058284E-01  9.62410235E-01  1.06603102E+00  1.11832934E+00
  1.13050075E+00  1.31988765E+00  1.34569070E+00  1.35376779E+00  1.42916415E+00
  1.54128359E+00  1.65833625E+00  1.76691593E+00  1.82346475E+00  1.87595288E+00
  1.94651814E+00  2.05202945E+00  2.10000392E+00  2.11491235E+00  2.16046794E+00
  2.31576787E+00  2.39855164E+00  2.40512250E+00  2.47963566E+00  2.59855126E+00
  2.73608431E+00  2.92601907E+00  2.98315266E+00  4.08650854E+00  4.12629615E+00
  4.21290070E+00  4.44390284E+00
Alpha MO coefficients                      R   N=        5184
  7.01080232E-01  3.46833754E-02 -7.16865645E-06  1.29583157E-04  0.00000000E+00
 -7.63423899E-03 -1.15290448E-03 -1.51416098E-03  0.00000000E+00 -6.79668350E-03
 -6.72205488E-03 -6.87772427E-03  2.07078059E-04  0.00000000E+00  0.00000000E+00
 -3.43607902E-04  9.70401948E-04  7.01080232E-01  3.46833754E-02  7.16865645E-06
 -1.29583157E-04  0.00000000E+00 -7.63423899E-03  1.15290448E-03  1.51416098E-03
  0.00000000E+00 -6.79668350E-03 -6.72205488E-03 -6.87772427E-03  2.07078059E-04
  0.00000000E+00  0.00000000E+00 -3.43607902E-04  9.70401948E-04  3.34493416E-02
  1.19655988E-03 -1.13396138E-04 -2.46421651E-04  0.00000000E+00  3.55235756E-03
  4.13237540E-04  1.61293456E-03  0.00000000E+00 -4.80630040E-04 -4.55082381E-04
 -4.50994505E-04 -4.70255732E-05  0.00000000E+00  0.00000000E+00 -1.10263689E-04
 -1.81427076E-04 -5.51876411E-05  2.56699744E-04  3.34493416E-02  1.19655988E-03
  1.13396138E-04  2.46421651E-04  0.00000000E+00  3.55235756E-03 -4.13237540E-04
 -1.61293456E-03  0.00000000E+00 -4.80630040E-04 -4.55082381E-04 -4.50994505E-04
 -4.70255732E-05  0.00000000E+00  0.00000000E+00 -1.10263689E-04 -1.81427076E-04
 -5.51876411E-05  2.56699744E-04  7.01217825E-01  3.51021434E-02  2.42901650E-04
 -2.43345698E-04  0.00000000E+00 -1.41249679E-02 -1.86667081E-03  1.84356853E-03
  0.00000000E+00 -6.35976427E-03 -6.09193606E-03 -6.66801371E-03 -5.02150653E-05
  0.00000000E+00  0.00000000E+00 -1.66769559E-04  1.35596500E-03 -7.01217825E-01
 -3.51021434E-02  2.42901650E-04 -2.43345698E-04  0.00000000E+00  1.41249679E-02
 -1.86667081E-03  1.84356853E-03  0.00000000E+00  6.35976427E-03  6.09193606E-03
  6.66801371E-03  5.02150653E-05  0.00000000E+00  0.00000000E+00  1.66769559E-04
 -1.35596500E-03 -3.51434136E-02 -1.43907531E-03  1.32491733E-04  2.15397838E-04
  0.00000000E+00 -3.09550233E-03 -3.14895420E-05 -1.48244743E-03  0.00000000E+00
  5.64457986E-04  5.63490995E-04  3.93404464E-04  8.18226144E-05  0.00000000E+00
  0.00000000E+00  1.06819751E-04  2.63892927E-04  1.44274056E-05 -1.49353799E-04
  3.51434136E-02  1.43907531E-03  1.32491733E-04  2.15397838E-04  0.00000000E+00
  3.09550233E-03 -3.14895420E-05 -1.48244743E-03  0.00000000E+00 -5.64457986E-04
 -5.63490995E-04 -3.93404464E-04 -8.18226144E-05  0.00000000E+00  0.00000000E+00
 -1.06819751E-04 -2.63892927E-04 -1.44274056E-05  1.49353799E-04 -3.37951734E-02
 -2.09083631E-03 -1.21314098E-04 -2.34061630E-04  0.00000000E+00  3.24200676E-03
  2.87342404E-04  9.48358022E-04  0.00000000E+00  1.61827358E-04  1.54789288E-04
  2.20200698E-04 -5.89645908E-05  0.00000000E+00  0.00000000E+00 -7.12656251E-05
 -2.56304639E-04 -3.37951734E-02 -2.09083631E-03  1.21314098E-04  2.34061630E-04
  0.00000000E+00  3.24200676E-03 -2.87342404E-04 -9.48358022E-04  0.00000000E+00
  1.61827358E-04  1.54789288E-04  2.20200698E-04 -5.89645908E-05  0.00000000E+00
  0.00000000E+00 -7.12656251E-05 -2.56304639E-04  7.01149825E-01  3.47814727E-02
  1.89798266E-05  5.15121593E-05  0.00000000E+00 -8.87724860E-03 -2.94344921E-04
 -3.88447244E-04  0.00000000E+00 -6.64956476E-03 -6.51444620E-03 -6.91384404E-03
  8.79611356E-05  0.00000000E+00  0.00000000E+00 -2.50848561E-04  1.57363513E-03
 -2.46888229E-04  1.59483759E-03  7.01149825E-01  3.47814727E-02 -1.89798266E-05
 -5.15121593E-05  0.00000000E+00 -8.87724860E-03  2.94344921E-04  3.88447244E-04
  0.00000000E+00 -6.64956476E-03 -6.51444620E-03 -6.91384404E-03  8.79611356E-05
  0.00000000E+00  0.00000000E+00 -2.50848561E-04  1.57363513E-03 -2.46888229E-04
  1.59483759E-03  3.54795288E-02  2.08339374E-03  2.03666894E-04  2.83798181E-04
  0.00000000E+00 -4.31280106E-03 -9.86555245E-04 -1.56011614E-03  0.00000000E+00
 -1.33034232E-04 -3.98463055E-05 -2.63418674E-04 -1.74305775E-05  0.00000000E+00
  0.00000000E+00  7.25897165E-06  1.42535481E-05 -3.54795288E-02 -2.08339374E-03
  2.03666894E-04  2.83798181E-04  0.00000000E+00  4.31280106E-03 -9.86555245E-04
 -1.56011614E-03  0.00000000E+00  1.33034232E-04  3.98463055E-05  2.63418674E-04
  1.74305775E-05  0.00000000E+00  0.00000000E+00 -7.25897165E-06 -1.42535481E-05
  7.01083705E-01  3.48685563E-02  6.92076444E-06  3.50874186E-05  0.00000000E+00
 -1.00339533E-02 -3.85956400E-04 -1.11911512E-03  0.00000000E+00 -6.62173867E-03
 -6.55023682E-03 -6.88196361E-03  9.10707913E-05  0.00000000E+00  0.00000000E+00
 -1.88117463E-04  1.53669566E-03 -2.36944157E-04  1.41338520E-03 -7.01083705E-01
 -3.48685563E-02  6.92076444E-06  3.50874186E-05  0.00000000E+00  1.00339533E-02
 -3.85956400E-04 -1.11911512E-03  0.00000000E+00  6.62173867E-03  6.55023682E-03
  6.88196361E-03 -9.10707913E-05  0.00000000E+00  0.00000000E+00  1.88117463E-04
 -1.53669566E-03  2.36944157E-04 -1.41338520E-03 -1.36400776E-01  2.65982549E-01
  4.65038325E-02 -1.32403625E-02  0.00000000E+00  1.65850016E-01 -1.81499546E-02
 -2.20139219E-02  0.00000000E+00  7.47254113E-04  6.20237498E-03 -1.42849021E-02
 -1.01514957E-03  0.00000000E+00  0.00000000E+00  6.66918399E-02  4.10664509E-03
 -1.36400776E-01  2.65982549E-01 -4.65038325E-02  1.32403625E-02  0.00000000E+00
  1.65850016E-01  1.81499546E-02  2.20139219E-02  0.00000000E+00  7.47254113E-04
  6.20237498E-03 -1.42849021E-02 -1.01514957E-03  0.00000000E+00  0.00000000E+00
  6.66918399E-02  4.10664509E-03 -9.00492228E-02  1.72058716E-01  2.89245778E-02
  6.94858326E-02  0.00000000E+00  1.43255962E-01  5.65656280E-03  1.39267428E-02
  0.00000000E+00  3.63728315E-04  5.73482489E-03 -9.70919899E-03  3.41004052E-03
  0.00000000E+00  0.00000000E+00  4.41525116E-02  8.00985628E-03  3.93664002E-02
  5.59065888E-03 -9.00492228E-02  1.72058716E-01 -2.89245778E-02 -6.94858326E-02
  0.00000000E+00  1.43255962E-01 -5.65656280E-03 -1.39267428E-02  0.00000000E+00
  3.63728315E-04  5.73482489E-03 -9.70919899E-03  3.41004052E-03  0.00000000E+00
  0.00000000E+00  4.41525116E-02  8.00985628E-03  3.93664002E-02  5.59065888E-03
  8.57074750E-02 -1.71807353E-01 -3.26869963E-02 -1.33486485E-01  0.00000000E+00
 -1.03986973E-01  1.19885940E-02 -4.11668120E-02  0.00000000E+00 -1.07092110E-03
  3.37886899E-03  7.73557726E-03 -8.45064531E-03  0.00000000E+00  0.00000000E+00
 -4.41465181E-02 -3.58849615E-03 -8.57074750E-02  1.71807353E-01 -3.26869963E-02
 -1.33486485E-01  0.00000000E+00  1.03986973E-01  1.19885940E-02 -4.11668120E-02
  0.00000000E+00  1.07092110E-03 -3.37886899E-03 -7.73557726E-03  8.45064531E-03
  0.00000000E+00  0.00000000E+00  4.41465181E-02  3.58849615E-03 -1.31137692E-01
  2.53633285E-01  3.65923309E-02  5.25336151E-02  0.00000000E+00  1.99155731E-01
 -8.97794291E-03  5.04261656E-03  0.00000000E+00  2.46558154E-03  4.08980814E-03
 -1.35587836E-02  2.04693877E-03  0.00000000E+00  0.00000000E+00  7.25808273E-02
  1.09379337E-02  7.76305514E-02  2.26965660E-02  1.31137692E-01 -2.53633285E-01
  3.65923309E-02  5.25336151E-02  0.00000000E+00 -1.99155731E-01 -8.97794291E-03
  5.04261656E-03  0.00000000E+00 -2.46558154E-03 -4.08980814E-03  1.35587836E-02
 -2.04693877E-03  0.00000000E+00  0.00000000E+00 -7.25808273E-02 -1.09379337E-02
 -7.76305514E-02 -2.26965660E-02  7.26416412E-02 -1.49171215E-01  9.10617316E-03