 Entering Gaussian System, Link 0=g16
 Initial command:
 /usr/local/gaussian/gaussian16.b1-legacy/g16/l1.exe "/scratch/master3/Gau-47757.inp" -scrdir="/scratch/master3/"
 Entering Link 1 = /usr/local/gaussian/gaussian16.b1-legacy/g16/l1.exe PID=     47758.
  
 Copyright (c) 1988-2017, Gaussian, Inc.  All Rights Reserved.
  
 This is part of the Gaussian(R) 16 program.  It is based on
 the Gaussian(R) 09 system (copyright 2009, Gaussian, Inc.),
 the Gaussian(R) 03 system (copyright 2003, Gaussian, Inc.),
 the Gaussian(R) 98 system (copyright 1998, Gaussian, Inc.),
 the Gaussian(R) 94 system (copyright 1995, Gaussian, Inc.),
 the Gaussian 92(TM) system (copyright 1992, Gaussian, Inc.),
 the Gaussian 90(TM) system (copyright 1990, Gaussian, Inc.),
 the Gaussian 88(TM) system (copyright 1988, Gaussian, Inc.),
 the Gaussian 86(TM) system (copyright 1986, Carnegie Mellon
 University), and the Gaussian 82(TM) system (copyright 1983,
 Carnegie Mellon University). Gaussian is a federally registered
 trademark of Gaussian, Inc.
  
 This software contains proprietary and confidential information,
 including trade secrets, belonging to Gaussian, Inc.
  
 This software is provided under written license and may be
 used, copied, transmitted, or stored only in accord with that
 written license.
  
 The following legend is applicable only to US Government
 contracts under FAR:
  
                    RESTRICTED RIGHTS LEGEND
  
 Use, reproduction and disclosure by the US Government is
 subject to restrictions as set forth in subparagraphs (a)
 and (c) of the Commercial Computer Software - Restricted
 Rights clause in FAR 52.227-19.
  
 Gaussian, Inc.
 340 Quinnipiac St., Bldg. 40, Wallingford CT 06492
  
  
 ---------------------------------------------------------------
 Warning -- This program may not be used in any manner that
 competes with the business of Gaussian, Inc. or will provide
 assistance to any competitor of Gaussian, Inc.  The licensee
 of this program is prohibited from giving any competitor of
 Gaussian, Inc. access to this program.  By using this program,
 the user acknowledges that Gaussian, Inc. is engaged in the
 business of creating and licensing software in the field of
 computational chemistry and represents and warrants to the
 licensee that it is not a competitor of Gaussian, Inc. and that
 it will not use this program in any manner prohibited above.
 ---------------------------------------------------------------
  

 Cite this work as:
 Gaussian 16, Revision B.01,
 M. J. Frisch, G. W. Trucks, H. B. Schlegel, G. E. Scuseria, 
 M. A. Robb, J. R. Cheeseman, G. Scalmani, V. Barone, 
 G. A. Petersson, H. Nakatsuji, X. Li, M. Caricato, A. V. Marenich, 
 J. Bloino, B. G. Janesko, R. Gomperts, B. Mennucci, H. P. Hratchian, 
 J. V. Ortiz, A. F. Izmaylov, J. L. Sonnenberg, D. Williams-Young, 
 F. Ding, F. Lipparini, F. Egidi, J. Goings, B. Peng, A. Petrone, 
 T. Henderson, D. Ranasinghe, V. G. Zakrzewski, J. Gao, N. Rega, 
 G. Zheng, W. Liang, M. Hada, M. Ehara, K. Toyota, R. Fukuda, 
 J. Hasegawa, M. Ishida, T. Nakajima, Y. Honda, O. Kitao, H. Nakai, 
 T. Vreven, K. Throssell, J. A. Montgomery, Jr., J. E. Peralta, 
 F. Ogliaro, M. J. Bearpark, J. J. Heyd, E. N. Brothers, K. N. Kudin, 
 V. N. Staroverov, T. A. Keith, R. Kobayashi, J. Normand, 
 K. Raghavachari, A. P. Rendell, J. C. Burant, S. S. Iyengar, 
 J. Tomasi, M. Cossi, J. M. Millam, M. Klene, C. Adamo, R. Cammi, 
 J. W. Ochterski, R. L. Martin, K. Morokuma, O. Farkas, 
 J. B. Foresman, and D. J. Fox, Gaussian, Inc., Wallingford CT, 2016.
 
 ******************************************
 Gaussian 16:  EM64L-G16RevB.01 20-Dec-2017
                 3-May-2019 
 ******************************************
 %chk=scan3.chk
 -------------------------------------------------
 # opt=modredundant b3lyp/6-31g* geom=connectivity
 -------------------------------------------------
 1/18=120,19=15,26=3,38=1,57=2/1,3;
 2/9=110,12=2,17=6,18=5,40=1/2;
 3/5=1,6=6,7=1,11=2,25=1,30=1,71=1,74=-5/1,2,3;
 4//1;
 5/5=2,38=5/2;
 6/7=2,8=2,9=2,10=2,28=1/1;
 7//1,2,3,16;
 1/18=20,19=15,26=3/3(2);
 2/9=110/2;
 99//99;
 2/9=110/2;
 3/5=1,6=6,7=1,11=2,25=1,30=1,71=1,74=-5/1,2,3;
 4/5=5,16=3,69=1/1;
 5/5=2,38=5/2;
 7//1,2,3,16;
 1/18=20,19=15,26=3/3(-5);
 2/9=110/2;
 6/7=2,8=2,9=2,10=2,19=2,28=1/1;
 99/9=1/99;
 --------------
 Butadiene scan
 --------------
 Symbolic Z-matrix:
 Charge =  0 Multiplicity = 1
 C                    -0.32607   0.65173   0. 
 H                    -1.41653   0.64538   0. 
 C                     0.32607  -0.65173   0. 
 H                     1.41653  -0.64538   0. 
 C                    -0.32607  -1.82297   0. 
 H                    -1.41301  -1.86922   0. 
 H                     0.20132  -2.77208   0. 
 C                     0.32607   1.82297   0. 
 H                     1.41301   1.86922   0. 
 H                    -0.20132   2.77208   0. 
 
 The following ModRedundant input section has been read:
 D       2       1       3       5 S  10 18.000                                
 

 GradGradGradGradGradGradGradGradGradGradGradGradGradGradGradGradGradGrad
 Berny optimization.
 Initialization pass.
                           ----------------------------
                           !    Initial Parameters    !
                           ! (Angstroms and Degrees)  !
 --------------------------                            --------------------------
 ! Name  Definition              Value          Derivative Info.                !
 --------------------------------------------------------------------------------
 ! R1    R(1,2)                  1.0905         estimate D2E/DX2                !
 ! R2    R(1,3)                  1.4575         estimate D2E/DX2                !
 ! R3    R(1,8)                  1.3406         estimate D2E/DX2                !
 ! R4    R(3,4)                  1.0905         estimate D2E/DX2                !
 ! R5    R(3,5)                  1.3406         estimate D2E/DX2                !
 ! R6    R(5,6)                  1.0879         estimate D2E/DX2                !
 ! R7    R(5,7)                  1.0858         estimate D2E/DX2                !
 ! R8    R(8,9)                  1.0879         estimate D2E/DX2                !
 ! R9    R(8,10)                 1.0858         estimate D2E/DX2                !
 ! A1    A(2,1,3)              116.2462         estimate D2E/DX2                !
 ! A2    A(2,1,8)              119.4427         estimate D2E/DX2                !
 ! A3    A(3,1,8)              124.3112         estimate D2E/DX2                !
 ! A4    A(1,3,4)              116.2462         estimate D2E/DX2                !
 ! A5    A(1,3,5)              124.3112         estimate D2E/DX2                !
 ! A6    A(4,3,5)              119.4427         estimate D2E/DX2                !
 ! A7    A(3,5,6)              121.5459         estimate D2E/DX2                !
 ! A8    A(3,5,7)              121.8316         estimate D2E/DX2                !
 ! A9    A(6,5,7)              116.6225         estimate D2E/DX2                !
 ! A10   A(1,8,9)              121.5459         estimate D2E/DX2                !
 ! A11   A(1,8,10)             121.8316         estimate D2E/DX2                !
 ! A12   A(9,8,10)             116.6225         estimate D2E/DX2                !
 ! D1    D(2,1,3,4)            180.0            estimate D2E/DX2                !
 ! D2    D(2,1,3,5)              0.0            Scan                            !
 ! D3    D(8,1,3,4)              0.0            estimate D2E/DX2                !
 ! D4    D(8,1,3,5)            180.0            estimate D2E/DX2                !
 ! D5    D(2,1,8,9)            180.0            estimate D2E/DX2                !
 ! D6    D(2,1,8,10)             0.0            estimate D2E/DX2                !
 ! D7    D(3,1,8,9)              0.0            estimate D2E/DX2                !
 ! D8    D(3,1,8,10)           180.0            estimate D2E/DX2                !
 ! D9    D(1,3,5,6)              0.0            estimate D2E/DX2                !
 ! D10   D(1,3,5,7)            180.0            estimate D2E/DX2                !
 ! D11   D(4,3,5,6)            180.0            estimate D2E/DX2                !
 ! D12   D(4,3,5,7)              0.0            estimate D2E/DX2                !
 --------------------------------------------------------------------------------
 Trust Radius=3.00D-01 FncErr=1.00D-07 GrdErr=1.00D-06 EigMax=2.50D+02 EigMin=1.00D-04
 Number of optimizations in scan=  11
 Number of steps in this run=     43 maximum allowed number of steps=    100.
 GradGradGradGradGradGradGradGradGradGradGradGradGradGradGradGradGradGrad

                          Input orientation:                          
 ---------------------------------------------------------------------
 Center     Atomic      Atomic             Coordinates (Angstroms)
 Number     Number       Type             X           Y           Z
 ---------------------------------------------------------------------
      1          6           0       -0.326073    0.651727    0.000000
      2          1           0       -1.416526    0.645378    0.000000
      3          6           0        0.326073   -0.651727    0.000000
      4          1           0        1.416526   -0.645378    0.000000
      5          6           0       -0.326073   -1.822966    0.000000
      6          1           0       -1.413010   -1.869223    0.000000
      7          1           0        0.201317   -2.772082    0.000000
      8          6           0        0.326073    1.822966    0.000000
      9          1           0        1.413010    1.869223    0.000000
     10          1           0       -0.201317    2.772082    0.000000
 ---------------------------------------------------------------------
                    Distance matrix (angstroms):
                    1          2          3          4          5
     1  C    0.000000
     2  H    1.090471   0.000000
     3  C    1.457493   2.172356   0.000000
     4  H    2.172356   3.113235   1.090471   0.000000
     5  C    2.474693   2.698483   1.340558   2.103180   0.000000
     6  H    2.745291   2.514603   2.122900   3.082867   1.087921
     7  H    3.464189   3.781065   2.124022   2.449409   1.085800
     8  C    1.340558   2.103180   2.474693   2.698483   3.703797
     9  H    2.122900   3.082867   2.745291   2.514603   4.081258
    10  H    2.124022   2.449409   3.464189   3.781065   4.596741
                    6          7          8          9         10
     6  H    0.000000
     7  H    1.849650   0.000000
     8  C    4.081258   4.596741   0.000000
     9  H    4.686402   4.796865   1.087921   0.000000
    10  H    4.796865   5.558765   1.085800   1.849650   0.000000
 Stoichiometry    C4H6
 Framework group  C2H[SGH(C4H6)]
 Deg. of freedom     9
 Full point group                 C2H     NOp   4
 Largest Abelian subgroup         C2H     NOp   4
 Largest concise Abelian subgroup C2      NOp   2
                         Standard orientation:                         
 ---------------------------------------------------------------------
 Center     Atomic      Atomic             Coordinates (Angstroms)
 Number     Number       Type             X           Y           Z
 ---------------------------------------------------------------------
      1          6           0       -0.326073    0.651727    0.000000
      2          1           0       -1.416526    0.645378    0.000000
      3          6           0        0.326073   -0.651727    0.000000
      4          1           0        1.416526   -0.645378    0.000000
      5          6           0       -0.326073   -1.822966    0.000000
      6          1           0       -1.413010   -1.869223    0.000000
      7          1           0        0.201317   -2.772082    0.000000
      8          6           0        0.326073    1.822966    0.000000
      9          1           0        1.413010    1.869223    0.000000
     10          1           0       -0.201317    2.772082    0.000000
 ---------------------------------------------------------------------
 Rotational constants (GHZ):          42.3101715           4.4087169           3.9926800
 Standard basis: 6-31G(d) (6D, 7F)
 There are    28 symmetry adapted cartesian basis functions of AG  symmetry.
 There are     8 symmetry adapted cartesian basis functions of BG  symmetry.
 There are     8 symmetry adapted cartesian basis functions of AU  symmetry.
 There are    28 symmetry adapted cartesian basis functions of BU  symmetry.
 There are    28 symmetry adapted basis functions of AG  symmetry.
 There are     8 symmetry adapted basis functions of BG  symmetry.
 There are     8 symmetry adapted basis functions of AU  symmetry.
 There are    28 symmetry adapted basis functions of BU  symmetry.
    72 basis functions,   136 primitive gaussians,    72 cartesian basis functions
    15 alpha electrons       15 beta electrons
       nuclear repulsion energy       103.5476379238 Hartrees.
 NAtoms=   10 NActive=   10 NUniq=    5 SFac= 4.00D+00 NAtFMM=   60 NAOKFM=F Big=F
 Integral buffers will be    131072 words long.
 Raffenetti 2 integral format.
 Two-electron integral symmetry is turned on.
 One-electron integrals computed using PRISM.
 NBasis=    72 RedAO= T EigKep=  3.63D-03  NBF=    28     8     8    28
 NBsUse=    72 1.00D-06 EigRej= -1.00D+00 NBFU=    28     8     8    28
 ExpMin= 1.61D-01 ExpMax= 3.05D+03 ExpMxC= 4.57D+02 IAcc=3 IRadAn=         5 AccDes= 0.00D+00
 Harris functional with IExCor=  402 and IRadAn=       5 diagonalized for initial guess.
 HarFok:  IExCor=  402 AccDes= 0.00D+00 IRadAn=         5 IDoV= 1 UseB2=F ITyADJ=14
 ICtDFT=  3500011 ScaDFX=  1.000000  1.000000  1.000000  1.000000
 FoFCou: FMM=F IPFlag=           0 FMFlag=      100000 FMFlg1=           0
         NFxFlg=           0 DoJE=T BraDBF=F KetDBF=T FulRan=T
         wScrn=  0.000000 ICntrl=       500 IOpCl=  0 I1Cent=   200000004 NGrid=           0
         NMat0=    1 NMatS0=      1 NMatT0=    0 NMatD0=    1 NMtDS0=    0 NMtDT0=    0
 Petite list used in FoFCou.
 Initial guess orbital symmetries:
       Occupied  (AG) (BU) (AG) (BU) (AG) (BU) (AG) (BU) (BU) (AG)
                 (AG) (BU) (AG) (AU) (BG)
       Virtual   (AU) (BG) (BU) (AG) (BU) (AG) (BU) (AG) (BU) (AG)
                 (BU) (BU) (AG) (AU) (BG) (AG) (BU) (BU) (AG) (BG)
                 (AU) (AG) (BU) (AG) (BU) (AG) (BU) (BU) (AG) (AG)
                 (BU) (AU) (AG) (BU) (BG) (AU) (BG) (AU) (AG) (AG)
                 (BU) (BU) (BG) (BU) (AG) (AG) (BU) (AU) (BG) (AG)
                 (BU) (BU) (AG) (AG) (BU) (AG) (BU)
 The electronic state of the initial guess is 1-AG.
 Keep R1 ints in memory in symmetry-blocked form, NReq=4414629.
 Requested convergence on RMS density matrix=1.00D-08 within 128 cycles.
 Requested convergence on MAX density matrix=1.00D-06.
 Requested convergence on             energy=1.00D-06.
 No special actions if energy rises.
 Integral accuracy reduced to 1.0D-05 until final iterations.
 Initial convergence to 1.0D-05 achieved.  Increase integral accuracy.
 SCF Done:  E(RB3LYP) =  -155.992139567     A.U. after   11 cycles
            NFock= 11  Conv=0.83D-08     -V/T= 2.0103

 **********************************************************************

            Population analysis using the SCF Density.

 **********************************************************************

 Orbital symmetries:
       Occupied  (AG) (BU) (AG) (BU) (AG) (BU) (AG) (BU) (BU) (AG)
                 (AG) (BU) (AG) (AU) (BG)
       Virtual   (AU) (BG) (BU) (AG) (BU) (AG) (BU) (AG) (BU) (AG)
                 (BU) (BU) (AG) (AU) (BG) (AG) (BU) (BG) (BU) (AU)
                 (AG) (AG) (BU) (AG) (BU) (AG) (BU) (BU) (AG) (AG)
                 (BU) (AG) (AU) (BU) (BG) (AU) (BG) (AU) (AG) (AG)
                 (BU) (BU) (BG) (BU) (AG) (AG) (BU) (AU) (BG) (AG)
                 (BU) (BU) (AG) (AG) (BU) (AG) (BU)
 The electronic state is 1-AG.
 Alpha  occ. eigenvalues --  -10.19244 -10.19210 -10.18379 -10.18379  -0.80144
 Alpha  occ. eigenvalues --   -0.72964  -0.60309  -0.55038  -0.46393  -0.45916
 Alpha  occ. eigenvalues --   -0.39135  -0.38493  -0.34435  -0.31982  -0.22901
 Alpha virt. eigenvalues --   -0.02250   0.08546   0.11555   0.12566   0.13074
 Alpha virt. eigenvalues --    0.17488   0.19253   0.21195   0.32520   0.33674
 Alpha virt. eigenvalues --    0.39728   0.47204   0.51672   0.53025   0.57792
 Alpha virt. eigenvalues --    0.60789   0.62697   0.66254   0.67114   0.67142
 Alpha virt. eigenvalues --    0.69333   0.84373   0.85785   0.86386   0.88849
 Alpha virt. eigenvalues --    0.93870   0.94506   0.96241   1.06603   1.11833
 Alpha virt. eigenvalues --    1.13050   1.31989   1.34569   1.35377   1.42916
 Alpha virt. eigenvalues --    1.54128   1.65834   1.76692   1.82347   1.87595
 Alpha virt. eigenvalues --    1.94652   2.05203   2.10000   2.11491   2.16047
 Alpha virt. eigenvalues --    2.31577   2.39855   2.40512   2.47963   2.59855
 Alpha virt. eigenvalues --    2.73608   2.92602   2.98315   4.08651   4.12630
 Alpha virt. eigenvalues --    4.21290   4.44390
          Condensed to atoms (all electrons):
               1          2          3          4          5          6
     1  C    4.741646   0.366091   0.460062  -0.051586  -0.028141  -0.010602
     2  H    0.366091   0.607145  -0.051586   0.005515  -0.006391   0.005806
     3  C    0.460062  -0.051586   4.741646   0.366091   0.634785  -0.036339
     4  H   -0.051586   0.005515   0.366091   0.607145  -0.051901   0.005752
     5  C   -0.028141  -0.006391   0.634785  -0.051901   5.069284   0.368661
     6  H   -0.010602   0.005806  -0.036339   0.005752   0.368661   0.566926
     7  H    0.003890  -0.000009  -0.020038  -0.006967   0.362811  -0.041975
     8  C    0.634785  -0.051901  -0.028141  -0.006391   0.003735   0.000303
     9  H   -0.036339   0.005752  -0.010602   0.005806   0.000303   0.000013
    10  H   -0.020038  -0.006967   0.003890  -0.000009  -0.000216  -0.000004
               7          8          9         10
     1  C    0.003890   0.634785  -0.036339  -0.020038
     2  H   -0.000009  -0.051901   0.005752  -0.006967
     3  C   -0.020038  -0.028141  -0.010602   0.003890
     4  H   -0.006967  -0.006391   0.005806  -0.000009
     5  C    0.362811   0.003735   0.000303  -0.000216
     6  H   -0.041975   0.000303   0.000013  -0.000004
     7  H    0.557811  -0.000216  -0.000004   0.000003
     8  C   -0.000216   5.069284   0.368661   0.362811
     9  H   -0.000004   0.368661   0.566926  -0.041975
    10  H    0.000003   0.362811  -0.041975   0.557811
 Mulliken charges:
               1
     1  C   -0.059770
     2  H    0.126544
     3  C   -0.059770
     4  H    0.126544
     5  C   -0.352929
     6  H    0.141459
     7  H    0.144695
     8  C   -0.352929
     9  H    0.141459
    10  H    0.144695
 Sum of Mulliken charges =  -0.00000
 Mulliken charges with hydrogens summed into heavy atoms:
               1
     1  C    0.066775
     3  C    0.066775
     5  C   -0.066775
     8  C   -0.066775
 Electronic spatial extent (au):  <R**2>=            335.9880
 Charge=             -0.0000 electrons
 Dipole moment (field-independent basis, Debye):
    X=              0.0000    Y=              0.0000    Z=              0.0000  Tot=              0.0000
 Quadrupole moment (field-independent basis, Debye-Ang):
   XX=            -22.6240   YY=            -22.8412   ZZ=            -27.9364
   XY=             -0.0171   XZ=              0.0000   YZ=              0.0000
 Traceless Quadrupole moment (field-independent basis, Debye-Ang):
   XX=              1.8432   YY=              1.6260   ZZ=             -3.4692
   XY=             -0.0171   XZ=              0.0000   YZ=              0.0000
 Octapole moment (field-independent basis, Debye-Ang**2):
  XXX=              0.0000  YYY=              0.0000  ZZZ=              0.0000  XYY=             -0.0000
  XXY=             -0.0000  XXZ=              0.0000  XZZ=             -0.0000  YZZ=             -0.0000
  YYZ=              0.0000  XYZ=              0.0000
 Hexadecapole moment (field-independent basis, Debye-Ang**3):
 XXXX=            -66.8658 YYYY=           -332.0007 ZZZZ=            -29.0078 XXXY=            -14.7595
 XXXZ=              0.0000 YYYX=            -21.4233 YYYZ=              0.0000 ZZZX=              0.0000
 ZZZY=              0.0000 XXYY=            -68.3698 XXZZ=            -17.8700 YYZZ=            -71.9110
 XXYZ=              0.0000 YYXZ=              0.0000 ZZXY=             -6.3562
 N-N= 1.035476379238D+02 E-N=-5.675276041655D+02  KE= 1.544042001234D+02
 Symmetry AG   KE= 7.667337688015D+01
 Symmetry BG   KE= 2.232210294056D+00
 Symmetry AU   KE= 1.976397612505D+00
 Symmetry BU   KE= 7.352221533665D+01
 Calling FoFJK, ICntrl=      2127 FMM=F ISym2X=1 I1Cent= 0 IOpClX= 0 NMat=1 NMatS=1 NMatT=0.
 ***** Axes restored to original set *****
 -------------------------------------------------------------------
 Center     Atomic                   Forces (Hartrees/Bohr)
 Number     Number              X              Y              Z
 -------------------------------------------------------------------
      1        6           0.000001526    0.000000801   -0.000000000
      2        1          -0.000000383   -0.000000290   -0.000000000
      3        6          -0.000001526   -0.000000801   -0.000000000
      4        1           0.000000383    0.000000290   -0.000000000
      5        6           0.000001652    0.000000901   -0.000000000
      6        1          -0.000000534   -0.000000215   -0.000000000
      7        1          -0.000000186    0.000000212   -0.000000000
      8        6          -0.000001652   -0.000000901   -0.000000000
      9        1           0.000000534    0.000000215   -0.000000000
     10        1           0.000000186   -0.000000212   -0.000000000
 -------------------------------------------------------------------
 Cartesian Forces:  Max     0.000001652 RMS     0.000000690

 GradGradGradGradGradGradGradGradGradGradGradGradGradGradGradGradGradGrad
 Berny optimization.
 FormGI is forming the generalized inverse of G from B-inverse, IUseBI=4.
 Internal  Forces:  Max     0.000001150 RMS     0.000000378
 Search for a local minimum.
 Step number   1 out of a maximum of   43 on scan point     1 out of    11
 All quantities printed in internal units (Hartrees-Bohrs-Radians)
 Mixed Optimization -- En-DIIS/RFO-DIIS
 Second derivative matrix not updated -- first step.
 ITU=  0
     Eigenvalues ---    0.01732   0.02124   0.02875   0.02875   0.02875
     Eigenvalues ---    0.02875   0.16000   0.16000   0.16000   0.16000
     Eigenvalues ---    0.16000   0.16000   0.22000   0.22000   0.34758
     Eigenvalues ---    0.34758   0.35054   0.35054   0.35303   0.35303
     Eigenvalues ---    0.37280   0.57080   0.570801000.000001000.00000
     Eigenvalues --- 1000.000001000.000001000.000001000.000001000.00000
     Eigenvalues --- 1000.000001000.000001000.00000
 RFO step:  Lambda= 0.00000000D+00 EMin= 1.73228825D-02
 Linear search not attempted -- first point.
 Iteration  1 RMS(Cart)=  0.00000112 RMS(Int)=  0.00000000
 Iteration  2 RMS(Cart)=  0.00000000 RMS(Int)=  0.00000000
 Iteration  1 RMS(Cart)=  0.00000000 RMS(Int)=  0.00000000
 ClnCor:  largest displacement from symmetrization is 1.46D-13 for atom     4.
 Variable       Old X    -DE/DX   Delta X   Delta X   Delta X     New X
                                 (Linear)    (Quad)   (Total)
    R1        2.06069   0.00000   0.00000   0.00000   0.00000   2.06069
    R2        2.75426  -0.00000   0.00000  -0.00000  -0.00000   2.75426
    R3        2.53329  -0.00000   0.00000  -0.00000  -0.00000   2.53329
    R4        2.06069   0.00000   0.00000   0.00000   0.00000   2.06069
    R5        2.53329  -0.00000   0.00000  -0.00000  -0.00000   2.53329
    R6        2.05587   0.00000   0.00000   0.00000   0.00000   2.05587
    R7        2.05186  -0.00000   0.00000  -0.00000  -0.00000   2.05186
    R8        2.05587   0.00000   0.00000   0.00000   0.00000   2.05587
    R9        2.05186  -0.00000   0.00000  -0.00000  -0.00000   2.05186
    A1        2.02888  -0.00000   0.00000  -0.00000  -0.00000   2.02888
    A2        2.08467   0.00000   0.00000   0.00000   0.00000   2.08467
    A3        2.16964   0.00000   0.00000   0.00000   0.00000   2.16964
    A4        2.02888  -0.00000   0.00000  -0.00000  -0.00000   2.02888
    A5        2.16964   0.00000   0.00000   0.00000   0.00000   2.16964
    A6        2.08467   0.00000   0.00000   0.00000   0.00000   2.08467
    A7        2.12138   0.00000   0.00000   0.00000   0.00000   2.12138
    A8        2.12636   0.00000   0.00000   0.00000   0.00000   2.12636
    A9        2.03545  -0.00000   0.00000  -0.00000  -0.00000   2.03545
   A10        2.12138   0.00000   0.00000   0.00000   0.00000   2.12138
   A11        2.12636   0.00000   0.00000   0.00000   0.00000   2.12636
   A12        2.03545  -0.00000   0.00000  -0.00000  -0.00000   2.03545
    D1        3.14159   0.00000   0.00000   0.00000   0.00000   3.14159
    D2        0.00000  -0.00000   0.00000   0.00000   0.00000   0.00000
    D3        0.00000  -0.00000   0.00000  -0.00000   0.00000   0.00000
    D4        3.14159  -0.00000   0.00000  -0.00000   0.00000   3.14159
    D5        3.14159   0.00000   0.00000  -0.00000   0.00000   3.14159
    D6        0.00000  -0.00000   0.00000  -0.00000   0.00000   0.00000
    D7        0.00000   0.00000   0.00000  -0.00000   0.00000   0.00000
    D8        3.14159  -0.00000   0.00000  -0.00000   0.00000   3.14159
    D9        0.00000   0.00000   0.00000   0.00000   0.00000   0.00000
   D10        3.14159  -0.00000   0.00000  -0.00000   0.00000   3.14159
   D11        3.14159   0.00000   0.00000   0.00000   0.00000   3.14159
   D12        0.00000  -0.00000   0.00000  -0.00000   0.00000   0.00000
         Item               Value     Threshold  Converged?
 Maximum Force            0.000001     0.000450     YES
 RMS     Force            0.000000     0.000300     YES
 Maximum Displacement     0.000003     0.001800     YES
 RMS     Displacement     0.000001     0.001200     YES
 Predicted change in Energy=-5.908803D-12
 Optimization completed.
    -- Stationary point found.
                           ----------------------------
                           !   Optimized Parameters   !
                           ! (Angstroms and Degrees)  !
 --------------------------                            --------------------------
 ! Name  Definition              Value          Derivative Info.                !
 --------------------------------------------------------------------------------
 ! R1    R(1,2)                  1.0905         -DE/DX =    0.0                 !
 ! R2    R(1,3)                  1.4575         -DE/DX =    0.0                 !
 ! R3    R(1,8)                  1.3406         -DE/DX =    0.0                 !
 ! R4    R(3,4)                  1.0905         -DE/DX =    0.0                 !
 ! R5    R(3,5)                  1.3406         -DE/DX =    0.0                 !
 ! R6    R(5,6)                  1.0879         -DE/DX =    0.0                 !
 ! R7    R(5,7)                  1.0858         -DE/DX =    0.0                 !
 ! R8    R(8,9)                  1.0879         -DE/DX =    0.0                 !
 ! R9    R(8,10)                 1.0858         -DE/DX =    0.0                 !
 ! A1    A(2,1,3)              116.2462         -DE/DX =    0.0                 !
 ! A2    A(2,1,8)              119.4427         -DE/DX =    0.0                 !
 ! A3    A(3,1,8)              124.3112         -DE/DX =    0.0                 !
 ! A4    A(1,3,4)              116.2462         -DE/DX =    0.0                 !
 ! A5    A(1,3,5)              124.3112         -DE/DX =    0.0                 !
 ! A6    A(4,3,5)              119.4427         -DE/DX =    0.0                 !
 ! A7    A(3,5,6)              121.5459         -DE/DX =    0.0                 !
 ! A8    A(3,5,7)              121.8316         -DE/DX =    0.0                 !
 ! A9    A(6,5,7)              116.6225         -DE/DX =    0.0                 !
 ! A10   A(1,8,9)              121.5459         -DE/DX =    0.0                 !
 ! A11   A(1,8,10)             121.8316         -DE/DX =    0.0                 !
 ! A12   A(9,8,10)             116.6225         -DE/DX =    0.0                 !
 ! D1    D(2,1,3,4)            180.0            -DE/DX =    0.0                 !
 ! D2    D(2,1,3,5)              0.0            -DE/DX =    0.0                 !
 ! D3    D(8,1,3,4)              0.0            -DE/DX =    0.0                 !
 ! D4    D(8,1,3,5)            180.0            -DE/DX =    0.0                 !
 ! D5    D(2,1,8,9)            180.0            -DE/DX =    0.0                 !
 ! D6    D(2,1,8,10)             0.0            -DE/DX =    0.0                 !
 ! D7    D(3,1,8,9)              0.0            -DE/DX =    0.0                 !
 ! D8    D(3,1,8,10)           180.0            -DE/DX =    0.0                 !
 ! D9    D(1,3,5,6)              0.0            -DE/DX =    0.0                 !
 ! D10   D(1,3,5,7)            180.0            -DE/DX =    0.0                 !
 ! D11   D(4,3,5,6)            180.0            -DE/DX =    0.0                 !
 ! D12   D(4,3,5,7)              0.0            -DE/DX =    0.0                 !
 --------------------------------------------------------------------------------
 Iteration  1 RMS(Cart)=  0.02822213 RMS(Int)=  0.04138794
 Iteration  2 RMS(Cart)=  0.01399926 RMS(Int)=  0.03899049
 Iteration  3 RMS(Cart)=  0.00230060 RMS(Int)=  0.03893932
 Iteration  4 RMS(Cart)=  0.00008102 RMS(Int)=  0.03893927
 Iteration  5 RMS(Cart)=  0.00000134 RMS(Int)=  0.03893927
 Iteration  6 RMS(Cart)=  0.00000014 RMS(Int)=  0.03893927
 Iteration  1 RMS(Cart)=  0.02249392 RMS(Int)=  0.01970843
 Iteration  2 RMS(Cart)=  0.01142774 RMS(Int)=  0.02202359
 Iteration  3 RMS(Cart)=  0.00578712 RMS(Int)=  0.02465572
 Iteration  4 RMS(Cart)=  0.00292503 RMS(Int)=  0.02624628
 Iteration  5 RMS(Cart)=  0.00147687 RMS(Int)=  0.02710260
 Iteration  6 RMS(Cart)=  0.00074528 RMS(Int)=  0.02754682
 Iteration  7 RMS(Cart)=  0.00037598 RMS(Int)=  0.02777384
 Iteration  8 RMS(Cart)=  0.00018965 RMS(Int)=  0.02788907
 Iteration  9 RMS(Cart)=  0.00009566 RMS(Int)=  0.02794736
 Iteration 10 RMS(Cart)=  0.00004825 RMS(Int)=  0.02797681
 Iteration 11 RMS(Cart)=  0.00002433 RMS(Int)=  0.02799168
 Iteration 12 RMS(Cart)=  0.00001227 RMS(Int)=  0.02799918
 Iteration 13 RMS(Cart)=  0.00000619 RMS(Int)=  0.02800296
 Iteration 14 RMS(Cart)=  0.00000312 RMS(Int)=  0.02800487
 Iteration 15 RMS(Cart)=  0.00000157 RMS(Int)=  0.02800583
 Iteration 16 RMS(Cart)=  0.00000079 RMS(Int)=  0.02800632
 GradGradGradGradGradGradGradGradGradGradGradGradGradGradGradGradGradGrad

                          Input orientation:                          
 ---------------------------------------------------------------------
 Center     Atomic      Atomic             Coordinates (Angstroms)
 Number     Number       Type             X           Y           Z
 ---------------------------------------------------------------------
      1          6           0       -0.331784    0.650688    0.012112
      2          1           0       -1.414470    0.661319    0.147726
      3          6           0        0.319701   -0.650826    0.092473
      4          1           0        1.410023   -0.648902    0.111302
      5          6           0       -0.322504   -1.821851   -0.028370
      6          1           0       -1.405389   -1.870423   -0.125148
      7          1           0        0.209297   -2.768484   -0.034752
      8          6           0        0.324128    1.818641   -0.042796
      9          1           0        1.409721    1.859664   -0.103562
     10          1           0       -0.198723    2.770175   -0.028987
 ---------------------------------------------------------------------
                    Distance matrix (angstroms):
                    1          2          3          4          5
     1  C    0.000000
     2  H    1.091198   0.000000
     3  C    1.457679   2.175346   0.000000
     4  H    2.175468   3.113803   1.090486   0.000000
     5  C    2.472888   2.718370   1.341019   2.096895   0.000000
     6  H    2.743623   2.546422   2.123844   3.078079   1.088285
     7  H    3.462037   3.799141   2.124348   2.440431   1.085802
     8  C    1.340653   2.097240   2.473172   2.700312   3.697503
     9  H    2.123168   3.078186   2.743926   2.517751   4.069375
    10  H    2.124057   2.440602   3.462190   3.781247   4.593694
                    6          7          8          9         10
     6  H    0.000000
     7  H    1.849836   0.000000
     8  C    4.075194   4.588569   0.000000
     9  H    4.673206   4.781789   1.088066   0.000000
    10  H    4.795877   5.553670   1.085809   1.849780   0.000000
 Stoichiometry    C4H6
 Framework group  C1[X(C4H6)]
 Deg. of freedom    24
 Full point group                 C1      NOp   1
 Omega: Change in point group or standard orientation.

 Old FWG=C02H [SGH(C4H6)]
 New FWG=C01  [X(C4H6)]
 Largest Abelian subgroup         C1      NOp   1
 Largest concise Abelian subgroup C1      NOp   1
                         Standard orientation:                         
 ---------------------------------------------------------------------
 Center     Atomic      Atomic             Coordinates (Angstroms)
 Number     Number       Type             X           Y           Z
 ---------------------------------------------------------------------
      1          6           0        0.608604    0.403035    0.015945
      2          1           0        0.493061    1.477507    0.167190
      3          6           0       -0.609136   -0.395797    0.077619
      4          1           0       -0.481078   -1.478733    0.080777
      5          6           0       -1.845972    0.108363   -0.042345
      6          1           0       -2.019079    1.179694   -0.123883
      7          1           0       -2.724611   -0.529233   -0.063144
      8          6           0        1.844931   -0.112436   -0.040038
      9          1           0        2.011710   -1.184950   -0.116117
     10          1           0        2.729434    0.516725   -0.011907
 ---------------------------------------------------------------------
 Rotational constants (GHZ):          41.8495061           4.4148122           4.0050359
 Standard basis: 6-31G(d) (6D, 7F)
 There are    72 symmetry adapted cartesian basis functions of A   symmetry.
 There are    72 symmetry adapted basis functions of A   symmetry.
    72 basis functions,   136 primitive gaussians,    72 cartesian basis functions
    15 alpha electrons       15 beta electrons
       nuclear repulsion energy       103.5567313200 Hartrees.
 NAtoms=   10 NActive=   10 NUniq=   10 SFac= 1.00D+00 NAtFMM=   60 NAOKFM=F Big=F
 Integral buffers will be    131072 words long.
 Raffenetti 2 integral format.
 Two-electron integral symmetry is turned on.
 One-electron integrals computed using PRISM.
 NBasis=    72 RedAO= T EigKep=  3.69D-03  NBF=    72
 NBsUse=    72 1.00D-06 EigRej= -1.00D+00 NBFU=    72
 Initial guess from the checkpoint file:  "scan3.chk"
 B after Tr=    -0.000000    0.000000   -0.000000
         Rot=    0.747100    0.000161    0.000112    0.664711 Ang=  83.32 deg.
 ExpMin= 1.61D-01 ExpMax= 3.05D+03 ExpMxC= 4.57D+02 IAcc=3 IRadAn=         5 AccDes= 0.00D+00
 Harris functional with IExCor=  402 and IRadAn=       5 diagonalized for initial guess.
 HarFok:  IExCor=  402 AccDes= 0.00D+00 IRadAn=         5 IDoV= 1 UseB2=F ITyADJ=14
 ICtDFT=  3500011 ScaDFX=  1.000000  1.000000  1.000000  1.000000
 FoFCou: FMM=F IPFlag=           0 FMFlag=      100000 FMFlg1=           0
         NFxFlg=           0 DoJE=T BraDBF=F KetDBF=T FulRan=T
         wScrn=  0.000000 ICntrl=       500 IOpCl=  0 I1Cent=   200000004 NGrid=           0
         NMat0=    1 NMatS0=      1 NMatT0=    0 NMatD0=    1 NMtDS0=    0 NMtDT0=    0
 Petite list used in FoFCou.
 Keep R1 ints in memory in canonical form, NReq=4352901.
 Requested convergence on RMS density matrix=1.00D-08 within 128 cycles.
 Requested convergence on MAX density matrix=1.00D-06.
 Requested convergence on             energy=1.00D-06.
 No special actions if energy rises.
 Integral accuracy reduced to 1.0D-05 until final iterations.
 Initial convergence to 1.0D-05 achieved.  Increase integral accuracy.
 SCF Done:  E(RB3LYP) =  -155.990399075     A.U. after   12 cycles
            NFock= 12  Conv=0.62D-08     -V/T= 2.0103
 Calling FoFJK, ICntrl=      2127 FMM=F ISym2X=0 I1Cent= 0 IOpClX= 0 NMat=1 NMatS=1 NMatT=0.
 ***** Axes restored to original set *****
 -------------------------------------------------------------------
 Center     Atomic                   Forces (Hartrees/Bohr)
 Number     Number              X              Y              Z
 -------------------------------------------------------------------
      1        6           0.000308383    0.002194027    0.015693499
      2        1          -0.000316330   -0.001075005   -0.005507780
      3        6           0.000419821   -0.001824989   -0.015287001
      4        1           0.000009568    0.000775693    0.003061786
      5        6          -0.000828296   -0.000062813    0.003175331
      6        1           0.000157889   -0.000059161    0.000627908
      7        1          -0.000042772   -0.000086712    0.000733995
      8        6           0.000399444    0.000072879   -0.001117929
      9        1          -0.000043333    0.000070455   -0.000112964
     10        1          -0.000064374   -0.000004375   -0.001266845
 -------------------------------------------------------------------
 Cartesian Forces:  Max     0.015693499 RMS     0.004261254

 GradGradGradGradGradGradGradGradGradGradGradGradGradGradGradGradGradGrad
 Berny optimization.
 FormGI is forming the generalized inverse of G from B-inverse, IUseBI=4.
 Internal  Forces:  Max     0.005492979 RMS     0.001612256
 Search for a local minimum.
 Step number   1 out of a maximum of   43 on scan point     2 out of    11
 All quantities printed in internal units (Hartrees-Bohrs-Radians)
 Mixed Optimization -- RFO/linear search
 Second derivative matrix not updated -- first step.
 ITU=  0
     Eigenvalues ---    0.01751   0.02163   0.02875   0.02875   0.02875
     Eigenvalues ---    0.02875   0.15861   0.15905   0.16000   0.16000
     Eigenvalues ---    0.16000   0.16000   0.22029   0.22030   0.34758
     Eigenvalues ---    0.34758   0.35054   0.35054   0.35303   0.35303
     Eigenvalues ---    0.37280   0.57080   0.570801000.000001000.00000
     Eigenvalues --- 1000.000001000.000001000.000001000.000001000.00000
     Eigenvalues --- 1000.000001000.000001000.00000
 RFO step:  Lambda=-1.11604675D-03 EMin= 1.75056786D-02
 Linear search not attempted -- first point.
 Iteration  1 RMS(Cart)=  0.04614041 RMS(Int)=  0.00136415
 Iteration  2 RMS(Cart)=  0.00243543 RMS(Int)=  0.00041005
 Iteration  3 RMS(Cart)=  0.00000370 RMS(Int)=  0.00041004
 Iteration  4 RMS(Cart)=  0.00000000 RMS(Int)=  0.00041004
 Iteration  1 RMS(Cart)=  0.00002087 RMS(Int)=  0.00001820
 Iteration  2 RMS(Cart)=  0.00001057 RMS(Int)=  0.00002035
 Iteration  3 RMS(Cart)=  0.00000535 RMS(Int)=  0.00002279
 Iteration  4 RMS(Cart)=  0.00000271 RMS(Int)=  0.00002426
 Iteration  5 RMS(Cart)=  0.00000137 RMS(Int)=  0.00002506
 Iteration  6 RMS(Cart)=  0.00000069 RMS(Int)=  0.00002547
 Variable       Old X    -DE/DX   Delta X   Delta X   Delta X     New X
                                 (Linear)    (Quad)   (Total)
    R1        2.06207  -0.00038   0.00000  -0.00109  -0.00109   2.06097
    R2        2.75461   0.00057   0.00000   0.00153   0.00153   2.75614
    R3        2.53347   0.00037   0.00000   0.00064   0.00064   2.53411
    R4        2.06072   0.00006   0.00000   0.00018   0.00018   2.06090
    R5        2.53416   0.00011   0.00000   0.00020   0.00020   2.53436
    R6        2.05656  -0.00021   0.00000  -0.00060  -0.00060   2.05596
    R7        2.05187   0.00005   0.00000   0.00014   0.00014   2.05201
    R8        2.05615  -0.00003   0.00000  -0.00010  -0.00010   2.05605
    R9        2.05188   0.00001   0.00000   0.00003   0.00003   2.05191
    A1        2.03230  -0.00062   0.00000   0.00034  -0.00071   2.03159
    A2        2.07377   0.00074   0.00000   0.00700   0.00597   2.07974
    A3        2.16693   0.00045   0.00000   0.00395   0.00290   2.16983
    A4        2.03336  -0.00110   0.00000  -0.00280  -0.00360   2.02976
    A5        2.16601   0.00081   0.00000   0.00526   0.00448   2.17048
    A6        2.07364   0.00083   0.00000   0.00733   0.00656   2.08020
    A7        2.12176   0.00004   0.00000   0.00028   0.00007   2.12182
    A8        2.12620  -0.00002   0.00000  -0.00011  -0.00032   2.12588
    A9        2.03523  -0.00003   0.00000  -0.00017  -0.00038   2.03485
   A10        2.12148   0.00009   0.00000   0.00057   0.00035   2.12183
   A11        2.12626  -0.00003   0.00000  -0.00021  -0.00043   2.12584
   A12        2.03544  -0.00006   0.00000  -0.00037  -0.00059   2.03486
    D1       -2.98255  -0.00137   0.00000   0.07470   0.07460  -2.90795
    D2        0.31416  -0.00549   0.00000   0.00000   0.00001   0.31416
    D3        0.00390   0.00299   0.00000   0.16064   0.16049   0.16439
    D4       -2.98258  -0.00114   0.00000   0.08594   0.08589  -2.89669
    D5        3.06232   0.00227   0.00000   0.04699   0.04711   3.10943
    D6       -0.07927   0.00106   0.00000   0.00662   0.00675  -0.07252
    D7        0.07931  -0.00207   0.00000  -0.04030  -0.04043   0.03888
    D8       -3.06229  -0.00328   0.00000  -0.08066  -0.08079   3.14011
    D9       -0.07925   0.00149   0.00000   0.01972   0.01987  -0.05938
   D10        3.06235   0.00267   0.00000   0.05929   0.05944   3.12178
   D11       -3.06239  -0.00256   0.00000  -0.05575  -0.05589  -3.11828
   D12        0.07921  -0.00138   0.00000  -0.01617  -0.01633   0.06288
         Item               Value     Threshold  Converged?
 Maximum Force            0.003035     0.000450     NO 
 RMS     Force            0.000882     0.000300     NO 
 Maximum Displacement     0.134808     0.001800     NO 
 RMS     Displacement     0.046170     0.001200     NO 
 Predicted change in Energy=-5.931435D-04
 GradGradGradGradGradGradGradGradGradGradGradGradGradGradGradGradGradGrad

                          Input orientation:                          
 ---------------------------------------------------------------------
 Center     Atomic      Atomic             Coordinates (Angstroms)
 Number     Number       Type             X           Y           Z
 ---------------------------------------------------------------------
      1          6           0       -0.328772    0.652897    0.066047
      2          1           0       -1.410110    0.660679    0.207821
      3          6           0        0.319965   -0.653004    0.096894
      4          1           0        1.407169   -0.650487    0.182639
      5          6           0       -0.320907   -1.820453   -0.061104
      6          1           0       -1.402229   -1.866191   -0.172134
      7          1           0        0.206947   -2.769317   -0.048618
      8          6           0        0.323910    1.818943   -0.046204
      9          1           0        1.405363    1.857871   -0.158989
     10          1           0       -0.201337    2.769062   -0.066355
 ---------------------------------------------------------------------
                    Distance matrix (angstroms):
                    1          2          3          4          5
     1  C    0.000000
     2  H    1.090620   0.000000
     3  C    1.458489   2.175139   0.000000
     4  H    2.173913   3.107548   1.090583   0.000000
     5  C    2.476629   2.722995   1.341126   2.101066   0.000000
     6  H    2.748608   2.555289   2.123712   3.081642   1.087969
     7  H    3.465790   3.800725   2.124319   2.446110   1.085878
     8  C    1.340991   2.100698   2.476089   2.706271   3.696108
     9  H    2.123636   3.081348   2.747373   2.531516   4.064438
    10  H    2.124128   2.445727   3.465392   3.787163   4.591075
                    6          7          8          9         10
     6  H    0.000000
     7  H    1.849416   0.000000
     8  C    4.071318   4.589752   0.000000
     9  H    4.663838   4.781136   1.088015   0.000000
    10  H    4.789457   5.553436   1.085825   1.849415   0.000000
 Stoichiometry    C4H6
 Framework group  C1[X(C4H6)]
 Deg. of freedom    24
 Full point group                 C1      NOp   1
 Largest Abelian subgroup         C1      NOp   1
 Largest concise Abelian subgroup C1      NOp   1
                         Standard orientation:                         
 ---------------------------------------------------------------------
 Center     Atomic      Atomic             Coordinates (Angstroms)
 Number     Number       Type             X           Y           Z
 ---------------------------------------------------------------------
      1          6           0        0.611145    0.400396    0.059089
      2          1           0        0.494539    1.474459    0.208233
      3          6           0       -0.611411   -0.394499    0.085351
      4          1           0       -0.483749   -1.474748    0.163682
      5          6           0       -1.844954    0.108833   -0.068420
      6          1           0       -2.014890    1.178437   -0.172081
      7          1           0       -2.726767   -0.524775   -0.059650
      8          6           0        1.844475   -0.112995   -0.057463
      9          1           0        2.007513   -1.181994   -0.177613
     10          1           0        2.727828    0.518219   -0.073915
 ---------------------------------------------------------------------
 Rotational constants (GHZ):          41.4593582           4.4085772           4.0079780
 Standard basis: 6-31G(d) (6D, 7F)
 There are    72 symmetry adapted cartesian basis functions of A   symmetry.
 There are    72 symmetry adapted basis functions of A   symmetry.
    72 basis functions,   136 primitive gaussians,    72 cartesian basis functions
    15 alpha electrons       15 beta electrons
       nuclear repulsion energy       103.5127596404 Hartrees.
 NAtoms=   10 NActive=   10 NUniq=   10 SFac= 1.00D+00 NAtFMM=   60 NAOKFM=F Big=F
 Integral buffers will be    131072 words long.
 Raffenetti 2 integral format.
 Two-electron integral symmetry is turned on.
 One-electron integrals computed using PRISM.
 NBasis=    72 RedAO= T EigKep=  3.74D-03  NBF=    72
 NBsUse=    72 1.00D-06 EigRej= -1.00D+00 NBFU=    72
 Initial guess from the checkpoint file:  "scan3.chk"
 B after Tr=    -0.000000   -0.000000    0.000000
         Rot=    1.000000   -0.000063    0.000009    0.000367 Ang=  -0.04 deg.
 ExpMin= 1.61D-01 ExpMax= 3.05D+03 ExpMxC= 4.57D+02 IAcc=3 IRadAn=         5 AccDes= 0.00D+00
 Harris functional with IExCor=  402 and IRadAn=       5 diagonalized for initial guess.
 HarFok:  IExCor=  402 AccDes= 0.00D+00 IRadAn=         5 IDoV= 1 UseB2=F ITyADJ=14
 ICtDFT=  3500011 ScaDFX=  1.000000  1.000000  1.000000  1.000000
 FoFCou: FMM=F IPFlag=           0 FMFlag=      100000 FMFlg1=           0
         NFxFlg=           0 DoJE=T BraDBF=F KetDBF=T FulRan=T
         wScrn=  0.000000 ICntrl=       500 IOpCl=  0 I1Cent=   200000004 NGrid=           0
         NMat0=    1 NMatS0=      1 NMatT0=    0 NMatD0=    1 NMtDS0=    0 NMtDT0=    0
 Petite list used in FoFCou.
 Keep R1 ints in memory in canonical form, NReq=4352901.
 Requested convergence on RMS density matrix=1.00D-08 within 128 cycles.
 Requested convergence on MAX density matrix=1.00D-06.
 Requested convergence on             energy=1.00D-06.
 No special actions if energy rises.
 Integral accuracy reduced to 1.0D-05 until final iterations.
 Initial convergence to 1.0D-05 achieved.  Increase integral accuracy.
 SCF Done:  E(RB3LYP) =  -155.990922092     A.U. after   11 cycles
            NFock= 11  Conv=0.37D-08     -V/T= 2.0103
 Calling FoFJK, ICntrl=      2127 FMM=F ISym2X=0 I1Cent= 0 IOpClX= 0 NMat=1 NMatS=1 NMatT=0.
 ***** Axes restored to original set *****
 -------------------------------------------------------------------
 Center     Atomic                   Forces (Hartrees/Bohr)
 Number     Number              X              Y              Z
 -------------------------------------------------------------------
      1        6           0.000316340    0.001770573    0.007439115
      2        1          -0.000475738   -0.000531461   -0.004096982
      3        6           0.000720947   -0.001204545   -0.007062798
      4        1          -0.000050009    0.000149829    0.000301452
      5        6          -0.000500151    0.000454327    0.005010704
      6        1           0.000022622    0.000039512   -0.000212560
      7        1           0.000153719    0.000082388   -0.000863550
      8        6          -0.000219173   -0.000780390   -0.001607499
      9        1           0.000032871    0.000001188    0.000460706
     10        1          -0.000001428    0.000018579    0.000631412
 -------------------------------------------------------------------
 Cartesian Forces:  Max     0.007439115 RMS     0.002295500

 GradGradGradGradGradGradGradGradGradGradGradGradGradGradGradGradGradGrad
 Berny optimization.
 Using GEDIIS/GDIIS optimizer.
 FormGI is forming the generalized inverse of G from B-inverse, IUseBI=4.
 Internal  Forces:  Max     0.003645642 RMS     0.000966094
 Search for a local minimum.
 Step number   2 out of a maximum of   43 on scan point     2 out of    11
 All quantities printed in internal units (Hartrees-Bohrs-Radians)
 Mixed Optimization -- En-DIIS/RFO-DIIS
 Update second derivatives using D2CorX and points    1    2
 DE= -5.23D-04 DEPred=-5.93D-04 R= 8.82D-01
 TightC=F SS=  1.41D+00  RLast= 2.38D-01 DXNew= 5.0454D-01 7.1352D-01
 Trust test= 8.82D-01 RLast= 2.38D-01 DXMaxT set to 5.05D-01
 ITU=  1  0
 Use linear search instead of GDIIS.
     Eigenvalues ---    0.01577   0.02132   0.02855   0.02876   0.02880
     Eigenvalues ---    0.03616   0.15906   0.15979   0.16000   0.16000
     Eigenvalues ---    0.16000   0.16002   0.22001   0.22068   0.34753
     Eigenvalues ---    0.34759   0.35053   0.35054   0.35303   0.35303
     Eigenvalues ---    0.37251   0.57078   0.572441000.000001000.00000
     Eigenvalues --- 1000.000001000.000001000.000001000.000001000.00000
     Eigenvalues --- 1000.000001000.000001000.00000
 RFO step:  Lambda=-6.81615921D-05 EMin= 1.57663526D-02
 Quartic linear search produced a step of -0.05669.
 Iteration  1 RMS(Cart)=  0.00656532 RMS(Int)=  0.00007979
 Iteration  2 RMS(Cart)=  0.00007283 RMS(Int)=  0.00004667
 Iteration  3 RMS(Cart)=  0.00000000 RMS(Int)=  0.00004667
 Iteration  1 RMS(Cart)=  0.00000034 RMS(Int)=  0.00000030
 Variable       Old X    -DE/DX   Delta X   Delta X   Delta X     New X
                                 (Linear)    (Quad)   (Total)
    R1        2.06097  -0.00006   0.00006  -0.00030  -0.00024   2.06073
    R2        2.75614   0.00052  -0.00009   0.00150   0.00141   2.75756
    R3        2.53411  -0.00071  -0.00004  -0.00110  -0.00113   2.53297
    R4        2.06090  -0.00003  -0.00001  -0.00005  -0.00006   2.06084
    R5        2.53436  -0.00081  -0.00001  -0.00132  -0.00133   2.53303
    R6        2.05596  -0.00000   0.00003  -0.00008  -0.00004   2.05592
    R7        2.05201  -0.00001  -0.00001  -0.00000  -0.00001   2.05200
    R8        2.05605  -0.00002   0.00001  -0.00005  -0.00005   2.05600
    R9        2.05191   0.00001  -0.00000   0.00002   0.00002   2.05193
    A1        2.03159  -0.00009   0.00004  -0.00073  -0.00064   2.03095
    A2        2.07974   0.00041  -0.00034   0.00224   0.00195   2.08169
    A3        2.16983  -0.00020  -0.00016  -0.00069  -0.00081   2.16902
    A4        2.02976  -0.00016   0.00020  -0.00139  -0.00115   2.02861
    A5        2.17048  -0.00009  -0.00025  -0.00011  -0.00032   2.17016
    A6        2.08020   0.00037  -0.00037   0.00198   0.00165   2.08184
    A7        2.12182   0.00001  -0.00000   0.00033   0.00022   2.12204
    A8        2.12588  -0.00004   0.00002  -0.00002  -0.00010   2.12578
    A9        2.03485   0.00006   0.00002   0.00054   0.00046   2.03531
   A10        2.12183   0.00002  -0.00002   0.00042   0.00030   2.12213
   A11        2.12584  -0.00004   0.00002  -0.00005  -0.00013   2.12571
   A12        2.03486   0.00005   0.00003   0.00050   0.00044   2.03529
    D1       -2.90795  -0.00189  -0.00423   0.00703   0.00280  -2.90515
    D2        0.31416  -0.00365  -0.00000   0.00000  -0.00000   0.31416
    D3        0.16439   0.00000  -0.00910   0.02118   0.01209   0.17648
    D4       -2.89669  -0.00176  -0.00487   0.01415   0.00928  -2.88740
    D5        3.10943   0.00056  -0.00267  -0.00558  -0.00825   3.10118
    D6       -0.07252   0.00151  -0.00038   0.02082   0.02044  -0.05208
    D7        0.03888  -0.00136   0.00229  -0.01999  -0.01769   0.02119
    D8        3.14011  -0.00041   0.00458   0.00642   0.01100  -3.13207
    D9       -0.05938   0.00108  -0.00113   0.00759   0.00646  -0.05292
   D10        3.12178   0.00013  -0.00337  -0.01901  -0.02239   3.09940
   D11       -3.11828  -0.00070   0.00317   0.00052   0.00369  -3.11459
   D12        0.06288  -0.00166   0.00093  -0.02608  -0.02515   0.03773
         Item               Value     Threshold  Converged?
 Maximum Force            0.000810     0.000450     NO 
 RMS     Force            0.000348     0.000300     NO 
 Maximum Displacement     0.024215     0.001800     NO 
 RMS     Displacement     0.006571     0.001200     NO 
 Predicted change in Energy=-3.620678D-05
 GradGradGradGradGradGradGradGradGradGradGradGradGradGradGradGradGradGrad

                          Input orientation:                          
 ---------------------------------------------------------------------
 Center     Atomic      Atomic             Coordinates (Angstroms)
 Number     Number       Type             X           Y           Z
 ---------------------------------------------------------------------
      1          6           0       -0.329394    0.653317    0.068635
      2          1           0       -1.410662    0.660667    0.209989
      3          6           0        0.319587   -0.653246    0.101607
      4          1           0        1.406499   -0.649461    0.190553
      5          6           0       -0.321321   -1.820059   -0.054979
      6          1           0       -1.401972   -1.865324   -0.172331
      7          1           0        0.208818   -2.767703   -0.061432
      8          6           0        0.323313    1.817485   -0.055203
      9          1           0        1.405530    1.855717   -0.160400
     10          1           0       -0.200398    2.768608   -0.066439
 ---------------------------------------------------------------------
                    Distance matrix (angstroms):
                    1          2          3          4          5
     1  C    0.000000
     2  H    1.090493   0.000000
     3  C    1.459237   2.175288   0.000000
     4  H    2.173803   3.106961   1.090551   0.000000
     5  C    2.476476   2.722292   1.340423   2.101416   0.000000
     6  H    2.748097   2.554774   2.123191   3.081804   1.087946
     7  H    3.465540   3.801329   2.123624   2.446403   1.085872
     8  C    1.340391   2.101243   2.475705   2.705459   3.694222
     9  H    2.123248   3.081602   2.746418   2.529641   4.062568
    10  H    2.123520   2.446337   3.465214   3.785678   4.590274
                    6          7          8          9         10
     6  H    0.000000
     7  H    1.849657   0.000000
     8  C    4.068587   4.586621   0.000000
     9  H    4.661368   4.776811   1.087990   0.000000
    10  H    4.788352   5.551416   1.085833   1.849650   0.000000
 Stoichiometry    C4H6
 Framework group  C1[X(C4H6)]
 Deg. of freedom    24
 Full point group                 C1      NOp   1
 Largest Abelian subgroup         C1      NOp   1
 Largest concise Abelian subgroup C1      NOp   1
                         Standard orientation:                         
 ---------------------------------------------------------------------
 Center     Atomic      Atomic             Coordinates (Angstroms)
 Number     Number       Type             X           Y           Z
 ---------------------------------------------------------------------
      1          6           0        0.611592    0.400699    0.062007
      2          1           0        0.494373    1.474744    0.209869
      3          6           0       -0.611740   -0.394374    0.088256
      4          1           0       -0.483146   -1.474176    0.170680
      5          6           0       -1.844272    0.109109   -0.066999
      6          1           0       -2.013308    1.178100   -0.177957
      7          1           0       -2.724671   -0.526406   -0.078686
      8          6           0        1.843261   -0.113066   -0.063231
      9          1           0        2.005817   -1.183039   -0.174843
     10          1           0        2.727881    0.516573   -0.069265
 ---------------------------------------------------------------------
 Rotational constants (GHZ):          41.3714809           4.4114751           4.0109785
 Standard basis: 6-31G(d) (6D, 7F)
 There are    72 symmetry adapted cartesian basis functions of A   symmetry.
 There are    72 symmetry adapted basis functions of A   symmetry.
    72 basis functions,   136 primitive gaussians,    72 cartesian basis functions
    15 alpha electrons       15 beta electrons
       nuclear repulsion energy       103.5287600369 Hartrees.
 NAtoms=   10 NActive=   10 NUniq=   10 SFac= 1.00D+00 NAtFMM=   60 NAOKFM=F Big=F
 Integral buffers will be    131072 words long.
 Raffenetti 2 integral format.
 Two-electron integral symmetry is turned on.
 One-electron integrals computed using PRISM.
 NBasis=    72 RedAO= T EigKep=  3.74D-03  NBF=    72
 NBsUse=    72 1.00D-06 EigRej= -1.00D+00 NBFU=    72
 Initial guess from the checkpoint file:  "scan3.chk"
 B after Tr=    -0.000000    0.000000   -0.000000
         Rot=    1.000000    0.000072   -0.000001    0.000061 Ang=   0.01 deg.
 ExpMin= 1.61D-01 ExpMax= 3.05D+03 ExpMxC= 4.57D+02 IAcc=3 IRadAn=         5 AccDes= 0.00D+00
 Harris functional with IExCor=  402 and IRadAn=       5 diagonalized for initial guess.
 HarFok:  IExCor=  402 AccDes= 0.00D+00 IRadAn=         5 IDoV= 1 UseB2=F ITyADJ=14
 ICtDFT=  3500011 ScaDFX=  1.000000  1.000000  1.000000  1.000000
 FoFCou: FMM=F IPFlag=           0 FMFlag=      100000 FMFlg1=           0
         NFxFlg=           0 DoJE=T BraDBF=F KetDBF=T FulRan=T
         wScrn=  0.000000 ICntrl=       500 IOpCl=  0 I1Cent=   200000004 NGrid=           0
         NMat0=    1 NMatS0=      1 NMatT0=    0 NMatD0=    1 NMtDS0=    0 NMtDT0=    0
 Petite list used in FoFCou.
 Keep R1 ints in memory in canonical form, NReq=4352901.
 Requested convergence on RMS density matrix=1.00D-08 within 128 cycles.
 Requested convergence on MAX density matrix=1.00D-06.
 Requested convergence on             energy=1.00D-06.
 No special actions if energy rises.
 Integral accuracy reduced to 1.0D-05 until final iterations.
 Initial convergence to 1.0D-05 achieved.  Increase integral accuracy.
 SCF Done:  E(RB3LYP) =  -155.990955847     A.U. after   10 cycles
            NFock= 10  Conv=0.10D-08     -V/T= 2.0103
 Calling FoFJK, ICntrl=      2127 FMM=F ISym2X=0 I1Cent= 0 IOpClX= 0 NMat=1 NMatS=1 NMatT=0.
 ***** Axes restored to original set *****
 -------------------------------------------------------------------
 Center     Atomic                   Forces (Hartrees/Bohr)
 Number     Number              X              Y              Z
 -------------------------------------------------------------------
      1        6           0.000278302    0.000803225    0.006941680
      2        1          -0.000524755   -0.000403336   -0.003938936
      3        6           0.000767774   -0.000218659   -0.006502073
      4        1          -0.000010869    0.000024884   -0.000007039
      5        6          -0.000489365   -0.000041110    0.003315488
      6        1          -0.000009353    0.000004769    0.000071036
      7        1           0.000003530    0.000001730    0.000048002
      8        6           0.000019773   -0.000153697    0.000177395
      9        1          -0.000022383   -0.000020779   -0.000055622
     10        1          -0.000012654    0.000002974   -0.000049931
 -------------------------------------------------------------------
 Cartesian Forces:  Max     0.006941680 RMS     0.001992328

 GradGradGradGradGradGradGradGradGradGradGradGradGradGradGradGradGradGrad
 Berny optimization.
 Using GEDIIS/GDIIS optimizer.
 FormGI is forming the generalized inverse of G from B-inverse, IUseBI=4.
 Internal  Forces:  Max     0.003632253 RMS     0.000902804
 Search for a local minimum.
 Step number   3 out of a maximum of   43 on scan point     2 out of    11
 All quantities printed in internal units (Hartrees-Bohrs-Radians)
 Mixed Optimization -- En-DIIS/RFO-DIIS
 Swapping is turned off.
 Update second derivatives using D2CorX and points    1    2    3
 DE= -3.38D-05 DEPred=-3.62D-05 R= 9.32D-01
 TightC=F SS=  1.41D+00  RLast= 4.86D-02 DXNew= 8.4853D-01 1.4586D-01
 Trust test= 9.32D-01 RLast= 4.86D-02 DXMaxT set to 5.05D-01
 ITU=  1  1  0
     Eigenvalues ---    0.01634   0.02129   0.02831   0.02875   0.02881
     Eigenvalues ---    0.03875   0.15817   0.15981   0.16000   0.16000
     Eigenvalues ---    0.16001   0.16003   0.21967   0.22023   0.34752
     Eigenvalues ---    0.34758   0.35053   0.35054   0.35303   0.35303
     Eigenvalues ---    0.36947   0.56649   0.570831000.000001000.00000
     Eigenvalues --- 1000.000001000.000001000.000001000.000001000.00000
     Eigenvalues --- 1000.000001000.000001000.00000
 En-DIIS/RFO-DIIS/Sim-DIIS IScMMF=       -3 using points:     3    2
 RFO step:  Lambda=-1.00674923D-06.
 DidBck=F Rises=F RFO-DIIS coefs:    0.93040    0.06960
 Iteration  1 RMS(Cart)=  0.00061616 RMS(Int)=  0.00000299
 Iteration  2 RMS(Cart)=  0.00000056 RMS(Int)=  0.00000294
 Iteration  1 RMS(Cart)=  0.00000045 RMS(Int)=  0.00000039
 Variable       Old X    -DE/DX   Delta X   Delta X   Delta X     New X
                                 (Linear)    (Quad)   (Total)
    R1        2.06073   0.00001   0.00002   0.00000   0.00002   2.06075
    R2        2.75756   0.00025  -0.00010   0.00075   0.00065   2.75820
    R3        2.53297  -0.00016   0.00008  -0.00036  -0.00028   2.53269
    R4        2.06084  -0.00001   0.00000  -0.00004  -0.00003   2.06081
    R5        2.53303  -0.00013   0.00009  -0.00033  -0.00024   2.53279
    R6        2.05592   0.00000   0.00000   0.00000   0.00000   2.05593
    R7        2.05200  -0.00000   0.00000  -0.00000  -0.00000   2.05200
    R8        2.05600  -0.00002   0.00000  -0.00005  -0.00005   2.05596
    R9        2.05193   0.00001  -0.00000   0.00003   0.00002   2.05195
    A1        2.03095  -0.00003   0.00004  -0.00013  -0.00008   2.03087
    A2        2.08169   0.00019  -0.00014   0.00064   0.00050   2.08219
    A3        2.16902  -0.00007   0.00006  -0.00050  -0.00045   2.16858
    A4        2.02861  -0.00004   0.00008  -0.00014  -0.00006   2.02856
    A5        2.17016  -0.00002   0.00002  -0.00027  -0.00025   2.16992
    A6        2.08184   0.00017  -0.00011   0.00037   0.00025   2.08210
    A7        2.12204  -0.00001  -0.00002  -0.00004  -0.00005   2.12199
    A8        2.12578  -0.00001   0.00001  -0.00007  -0.00006   2.12573
    A9        2.03531   0.00001  -0.00003   0.00010   0.00008   2.03539
   A10        2.12213  -0.00002  -0.00002  -0.00011  -0.00013   2.12200
   A11        2.12571   0.00001   0.00001   0.00000   0.00002   2.12573
   A12        2.03529   0.00001  -0.00003   0.00011   0.00008   2.03537
    D1       -2.90515  -0.00185  -0.00020  -0.00050  -0.00070  -2.90584
    D2        0.31416  -0.00363   0.00000   0.00000  -0.00000   0.31416
    D3        0.17648  -0.00006  -0.00084  -0.00036  -0.00120   0.17527
    D4       -2.88740  -0.00185  -0.00065   0.00014  -0.00051  -2.88791
    D5        3.10118   0.00097   0.00057   0.00065   0.00123   3.10240
    D6       -0.05208   0.00087  -0.00142   0.00003  -0.00140  -0.05347
    D7        0.02119  -0.00086   0.00123   0.00053   0.00177   0.02295
    D8       -3.13207  -0.00096  -0.00077  -0.00009  -0.00086  -3.13293
    D9       -0.05292   0.00085  -0.00045  -0.00183  -0.00228  -0.05520
   D10        3.09940   0.00095   0.00156  -0.00095   0.00060   3.10000
   D11       -3.11459  -0.00097  -0.00026  -0.00129  -0.00155  -3.11613
   D12        0.03773  -0.00087   0.00175  -0.00042   0.00133   0.03906
         Item               Value     Threshold  Converged?
 Maximum Force            0.000252     0.000450     YES
 RMS     Force            0.000070     0.000300     YES
 Maximum Displacement     0.001952     0.001800     NO 
 RMS     Displacement     0.000616     0.001200     YES
 Predicted change in Energy=-4.923164D-07
 GradGradGradGradGradGradGradGradGradGradGradGradGradGradGradGradGradGrad

                          Input orientation:                          
 ---------------------------------------------------------------------
 Center     Atomic      Atomic             Coordinates (Angstroms)
 Number     Number       Type             X           Y           Z
 ---------------------------------------------------------------------
      1          6           0       -0.329684    0.653480    0.068417
      2          1           0       -1.411027    0.660516    0.209297
      3          6           0        0.319682   -0.653272    0.101499
      4          1           0        1.406591   -0.649223    0.190254
      5          6           0       -0.321160   -1.819912   -0.055563
      6          1           0       -1.401987   -1.865205   -0.171298
      7          1           0        0.208920   -2.767593   -0.061397
      8          6           0        0.323346    1.817400   -0.054407
      9          1           0        1.405496    1.855180   -0.160202
     10          1           0       -0.200177    2.768629   -0.066599
 ---------------------------------------------------------------------
                    Distance matrix (angstroms):
                    1          2          3          4          5
     1  C    0.000000
     2  H    1.090503   0.000000
     3  C    1.459579   2.175548   0.000000
     4  H    2.174059   3.107209   1.090535   0.000000
     5  C    2.476513   2.722221   1.340297   2.101443   0.000000
     6  H    2.747921   2.554252   2.123050   3.081792   1.087949
     7  H    3.465644   3.801241   2.123478   2.446474   1.085872
     8  C    1.340240   2.101421   2.475589   2.705089   3.693972
     9  H    2.123017   3.081647   2.745871   2.528805   4.061846
    10  H    2.123407   2.446715   3.465244   3.785418   4.590149
                    6          7          8          9         10
     6  H    0.000000
     7  H    1.849703   0.000000
     8  C    4.068417   4.586426   0.000000
     9  H    4.660831   4.776148   1.087965   0.000000
    10  H    4.788291   5.551319   1.085847   1.849686   0.000000
 Stoichiometry    C4H6
 Framework group  C1[X(C4H6)]
 Deg. of freedom    24
 Full point group                 C1      NOp   1
 Largest Abelian subgroup         C1      NOp   1
 Largest concise Abelian subgroup C1      NOp   1
                         Standard orientation:                         
 ---------------------------------------------------------------------
 Center     Atomic      Atomic             Coordinates (Angstroms)
 Number     Number       Type             X           Y           Z
 ---------------------------------------------------------------------
      1          6           0        0.611719    0.400969    0.061726
      2          1           0        0.494259    1.475050    0.209209
      3          6           0       -0.611790   -0.394451    0.088251
      4          1           0       -0.482972   -1.474231    0.170387
      5          6           0       -1.844147    0.109059   -0.067220
      6          1           0       -2.013202    1.178227   -0.176455
      7          1           0       -2.724623   -0.526362   -0.078170
      8          6           0        1.843130   -0.113203   -0.062762
      9          1           0        2.005157   -1.183156   -0.175076
     10          1           0        2.727908    0.516226   -0.069871
 ---------------------------------------------------------------------
 Rotational constants (GHZ):          41.3606369           4.4120088           4.0112148
 Standard basis: 6-31G(d) (6D, 7F)
 There are    72 symmetry adapted cartesian basis functions of A   symmetry.
 There are    72 symmetry adapted basis functions of A   symmetry.
    72 basis functions,   136 primitive gaussians,    72 cartesian basis functions
    15 alpha electrons       15 beta electrons
       nuclear repulsion energy       103.5299949589 Hartrees.
 NAtoms=   10 NActive=   10 NUniq=   10 SFac= 1.00D+00 NAtFMM=   60 NAOKFM=F Big=F
 Integral buffers will be    131072 words long.
 Raffenetti 2 integral format.
 Two-electron integral symmetry is turned on.
 One-electron integrals computed using PRISM.
 NBasis=    72 RedAO= T EigKep=  3.74D-03  NBF=    72
 NBsUse=    72 1.00D-06 EigRej= -1.00D+00 NBFU=    72
 Initial guess from the checkpoint file:  "scan3.chk"
 B after Tr=     0.000000    0.000000   -0.000000
         Rot=    1.000000    0.000021   -0.000002    0.000014 Ang=   0.00 deg.
 Keep R1 ints in memory in canonical form, NReq=4352901.
 Requested convergence on RMS density matrix=1.00D-08 within 128 cycles.
 Requested convergence on MAX density matrix=1.00D-06.
 Requested convergence on             energy=1.00D-06.
 No special actions if energy rises.
 SCF Done:  E(RB3LYP) =  -155.990956382     A.U. after    8 cycles
            NFock=  8  Conv=0.21D-08     -V/T= 2.0103
 Calling FoFJK, ICntrl=      2127 FMM=F ISym2X=0 I1Cent= 0 IOpClX= 0 NMat=1 NMatS=1 NMatT=0.
 ***** Axes restored to original set *****
 -------------------------------------------------------------------
 Center     Atomic                   Forces (Hartrees/Bohr)
 Number     Number              X              Y              Z
 -------------------------------------------------------------------
      1        6           0.000354383    0.000479061    0.007041596
      2        1          -0.000507263   -0.000381540   -0.003933863
      3        6           0.000685824    0.000063262   -0.006577544
      4        1          -0.000006252    0.000022182   -0.000007226
      5        6          -0.000541915   -0.000166633    0.003476842
      6        1           0.000001328    0.000000650   -0.000006102
      7        1          -0.000001899   -0.000005825    0.000004746
      8        6           0.000014409   -0.000013560    0.000002899
      9        1          -0.000001837   -0.000004081    0.000003178
     10        1           0.000003222    0.000006484   -0.000004527
 -------------------------------------------------------------------
 Cartesian Forces:  Max     0.007041596 RMS     0.002016323

 GradGradGradGradGradGradGradGradGradGradGradGradGradGradGradGradGradGrad
 Berny optimization.
 Using GEDIIS/GDIIS optimizer.
 FormGI is forming the generalized inverse of G from B-inverse, IUseBI=4.
 Internal  Forces:  Max     0.003632740 RMS     0.000900522
 Search for a local minimum.
 Step number   4 out of a maximum of   43 on scan point     2 out of    11
 All quantities printed in internal units (Hartrees-Bohrs-Radians)
 Mixed Optimization -- En-DIIS/RFO-DIIS
 Swapping is turned off.
 Update second derivatives using D2CorX and points    1    2    3    4
 DE= -5.35D-07 DEPred=-4.92D-07 R= 1.09D+00
 Trust test= 1.09D+00 RLast= 4.52D-03 DXMaxT set to 5.05D-01
 ITU=  0  1  1  0
     Eigenvalues ---    0.01618   0.02130   0.02847   0.02876   0.03033
     Eigenvalues ---    0.03951   0.14730   0.15972   0.15996   0.16000
     Eigenvalues ---    0.16000   0.16062   0.21153   0.22020   0.34168
     Eigenvalues ---    0.34761   0.34879   0.35054   0.35079   0.35304
     Eigenvalues ---    0.35330   0.57076   0.573231000.000001000.00000
     Eigenvalues --- 1000.000001000.000001000.000001000.000001000.00000
     Eigenvalues --- 1000.000001000.000001000.00000
 En-DIIS/RFO-DIIS/Sim-DIIS IScMMF=       -3 using points:     4    3    2
 RFO step:  Lambda=-6.59905688D-08.
 DidBck=F Rises=F RFO-DIIS coefs:    0.98891    0.00408    0.00701
 Iteration  1 RMS(Cart)=  0.00014712 RMS(Int)=  0.00000054
 Iteration  2 RMS(Cart)=  0.00000002 RMS(Int)=  0.00000054
 Iteration  1 RMS(Cart)=  0.00000049 RMS(Int)=  0.00000043
 Variable       Old X    -DE/DX   Delta X   Delta X   Delta X     New X
                                 (Linear)    (Quad)   (Total)
    R1        2.06075  -0.00001   0.00000  -0.00002  -0.00002   2.06073
    R2        2.75820   0.00007  -0.00002   0.00024   0.00023   2.75843
    R3        2.53269  -0.00000   0.00001  -0.00003  -0.00002   2.53267
    R4        2.06081  -0.00001   0.00000  -0.00002  -0.00002   2.06079
    R5        2.53279   0.00000   0.00001  -0.00002  -0.00001   2.53278
    R6        2.05593  -0.00000   0.00000  -0.00000  -0.00000   2.05592
    R7        2.05200   0.00000   0.00000   0.00001   0.00001   2.05201
    R8        2.05596  -0.00000   0.00000  -0.00001  -0.00001   2.05595
    R9        2.05195   0.00000  -0.00000   0.00001   0.00001   2.05197
    A1        2.03087  -0.00004   0.00001  -0.00012  -0.00012   2.03075
    A2        2.08219   0.00013  -0.00002   0.00029   0.00027   2.08246
    A3        2.16858  -0.00000   0.00001  -0.00017  -0.00016   2.16842
    A4        2.02856  -0.00005   0.00001  -0.00014  -0.00013   2.02842
    A5        2.16992   0.00003   0.00000  -0.00006  -0.00006   2.16986
    A6        2.08210   0.00015  -0.00001   0.00020   0.00019   2.08229
    A7        2.12199  -0.00000  -0.00000  -0.00002  -0.00002   2.12197
    A8        2.12573   0.00001   0.00000   0.00003   0.00003   2.12576
    A9        2.03539  -0.00000  -0.00000  -0.00001  -0.00001   2.03538
   A10        2.12200  -0.00001  -0.00000  -0.00007  -0.00007   2.12193
   A11        2.12573   0.00001   0.00000   0.00008   0.00008   2.12581
   A12        2.03537  -0.00000  -0.00000  -0.00000  -0.00001   2.03537
    D1       -2.90584  -0.00184  -0.00001  -0.00006  -0.00007  -2.90591
    D2        0.31416  -0.00363   0.00000   0.00000  -0.00000   0.31416
    D3        0.17527  -0.00005  -0.00007  -0.00008  -0.00015   0.17512
    D4       -2.88791  -0.00184  -0.00006  -0.00002  -0.00008  -2.88799
    D5        3.10240   0.00091   0.00004  -0.00014  -0.00009   3.10231
    D6       -0.05347   0.00091  -0.00013  -0.00007  -0.00020  -0.05368
    D7        0.02295  -0.00092   0.00010  -0.00010   0.00000   0.02296
    D8       -3.13293  -0.00092  -0.00007  -0.00004  -0.00011  -3.13303
    D9       -0.05520   0.00092  -0.00002   0.00010   0.00008  -0.05512
   D10        3.10000   0.00092   0.00015  -0.00002   0.00013   3.10014
   D11       -3.11613  -0.00091  -0.00001   0.00017   0.00017  -3.11597
   D12        0.03906  -0.00091   0.00016   0.00006   0.00022   0.03929
         Item               Value     Threshold  Converged?
 Maximum Force            0.000068     0.000450     YES
 RMS     Force            0.000017     0.000300     YES
 Maximum Displacement     0.000397     0.001800     YES
 RMS     Displacement     0.000147     0.001200     YES
 Predicted change in Energy=-2.554817D-08
 Optimization completed.
    -- Stationary point found.
                           ----------------------------
                           !   Optimized Parameters   !
                           ! (Angstroms and Degrees)  !
 --------------------------                            --------------------------
 ! Name  Definition              Value          Derivative Info.                !
 --------------------------------------------------------------------------------
 ! R1    R(1,2)                  1.0905         -DE/DX =    0.0                 !
 ! R2    R(1,3)                  1.4596         -DE/DX =    0.0001              !
 ! R3    R(1,8)                  1.3402         -DE/DX =    0.0                 !
 ! R4    R(3,4)                  1.0905         -DE/DX =    0.0                 !
 ! R5    R(3,5)                  1.3403         -DE/DX =    0.0                 !
 ! R6    R(5,6)                  1.0879         -DE/DX =    0.0                 !
 ! R7    R(5,7)                  1.0859         -DE/DX =    0.0                 !
 ! R8    R(8,9)                  1.088          -DE/DX =    0.0                 !
 ! R9    R(8,10)                 1.0858         -DE/DX =    0.0                 !
 ! A1    A(2,1,3)              116.36           -DE/DX =    0.0                 !
 ! A2    A(2,1,8)              119.3006         -DE/DX =    0.0001              !
 ! A3    A(3,1,8)              124.2504         -DE/DX =    0.0                 !
 ! A4    A(1,3,4)              116.2278         -DE/DX =   -0.0001              !
 ! A5    A(1,3,5)              124.3271         -DE/DX =    0.0                 !
 ! A6    A(4,3,5)              119.2955         -DE/DX =    0.0001              !
 ! A7    A(3,5,6)              121.5813         -DE/DX =    0.0                 !
 ! A8    A(3,5,7)              121.7952         -DE/DX =    0.0                 !
 ! A9    A(6,5,7)              116.6193         -DE/DX =    0.0                 !
 ! A10   A(1,8,9)              121.5816         -DE/DX =    0.0                 !
 ! A11   A(1,8,10)             121.7953         -DE/DX =    0.0                 !
 ! A12   A(9,8,10)             116.6183         -DE/DX =    0.0                 !
 ! D1    D(2,1,3,4)           -166.4925         -DE/DX =   -0.0018              !
 ! D2    D(2,1,3,5)             17.9999         -DE/DX =   -0.0036              !
 ! D3    D(8,1,3,4)             10.0424         -DE/DX =   -0.0001              !
 ! D4    D(8,1,3,5)           -165.4652         -DE/DX =   -0.0018              !
 ! D5    D(2,1,8,9)            177.7546         -DE/DX =    0.0009              !
 ! D6    D(2,1,8,10)            -3.0639         -DE/DX =    0.0009              !
 ! D7    D(3,1,8,9)              1.315          -DE/DX =   -0.0009              !
 ! D8    D(3,1,8,10)          -179.5035         -DE/DX =   -0.0009              !
 ! D9    D(1,3,5,6)             -3.1625         -DE/DX =    0.0009              !
 ! D10   D(1,3,5,7)            177.6171         -DE/DX =    0.0009              !
 ! D11   D(4,3,5,6)           -178.5414         -DE/DX =   -0.0009              !
 ! D12   D(4,3,5,7)              2.2382         -DE/DX =   -0.0009              !
 --------------------------------------------------------------------------------
 Iteration  1 RMS(Cart)=  0.02841230 RMS(Int)=  0.04136032
 Iteration  2 RMS(Cart)=  0.01425492 RMS(Int)=  0.03894294
 Iteration  3 RMS(Cart)=  0.00233636 RMS(Int)=  0.03889174
 Iteration  4 RMS(Cart)=  0.00007855 RMS(Int)=  0.03889169
 Iteration  5 RMS(Cart)=  0.00000156 RMS(Int)=  0.03889169
 Iteration  6 RMS(Cart)=  0.00000014 RMS(Int)=  0.03889169
 Iteration  1 RMS(Cart)=  0.02274044 RMS(Int)=  0.01960653
 Iteration  2 RMS(Cart)=  0.01154726 RMS(Int)=  0.02190528
 Iteration  3 RMS(Cart)=  0.00582833 RMS(Int)=  0.02450977
 Iteration  4 RMS(Cart)=  0.00293213 RMS(Int)=  0.02607463
 Iteration  5 RMS(Cart)=  0.00147259 RMS(Int)=  0.02691207
 Iteration  6 RMS(Cart)=  0.00073892 RMS(Int)=  0.02734387
 Iteration  7 RMS(Cart)=  0.00037062 RMS(Int)=  0.02756319
 Iteration  8 RMS(Cart)=  0.00018585 RMS(Int)=  0.02767385
 Iteration  9 RMS(Cart)=  0.00009318 RMS(Int)=  0.02772950
 Iteration 10 RMS(Cart)=  0.00004672 RMS(Int)=  0.02775744
 Iteration 11 RMS(Cart)=  0.00002342 RMS(Int)=  0.02777146
 Iteration 12 RMS(Cart)=  0.00001174 RMS(Int)=  0.02777849
 Iteration 13 RMS(Cart)=  0.00000589 RMS(Int)=  0.02778201
 Iteration 14 RMS(Cart)=  0.00000295 RMS(Int)=  0.02778378
 Iteration 15 RMS(Cart)=  0.00000148 RMS(Int)=  0.02778467
 Iteration 16 RMS(Cart)=  0.00000074 RMS(Int)=  0.02778511
[...]
                           ----------------------------
                           !   Optimized Parameters   !
                           ! (Angstroms and Degrees)  !
 --------------------------                            --------------------------
 ! Name  Definition              Value          Derivative Info.                !
 --------------------------------------------------------------------------------
 ! R1    R(1,2)                  1.0896         -DE/DX =    0.0                 !
 ! R2    R(1,3)                  1.4715         -DE/DX =   -0.0001              !
 ! R3    R(1,8)                  1.3399         -DE/DX =    0.0                 !
 ! R4    R(3,4)                  1.0896         -DE/DX =    0.0                 !
 ! R5    R(3,5)                  1.3399         -DE/DX =    0.0                 !
 ! R6    R(5,6)                  1.0873         -DE/DX =    0.0                 !
 ! R7    R(5,7)                  1.0859         -DE/DX =    0.0                 !
 ! R8    R(8,9)                  1.0873         -DE/DX =    0.0                 !
 ! R9    R(8,10)                 1.0858         -DE/DX =    0.0                 !
 ! A1    A(2,1,3)              114.8469         -DE/DX =    0.0                 !
 ! A2    A(2,1,8)              117.8873         -DE/DX =    0.0                 !
 ! A3    A(3,1,8)              127.2658         -DE/DX =    0.0                 !
 ! A4    A(1,3,4)              114.8567         -DE/DX =    0.0                 !
 ! A5    A(1,3,5)              127.2709         -DE/DX =    0.0                 !
 ! A6    A(4,3,5)              117.8724         -DE/DX =    0.0                 !
 ! A7    A(3,5,6)              122.5263         -DE/DX =    0.0                 !
 ! A8    A(3,5,7)              121.1604         -DE/DX =    0.0                 !
 ! A9    A(6,5,7)              116.3133         -DE/DX =    0.0                 !
 ! A10   A(1,8,9)              122.516          -DE/DX =    0.0                 !
 ! A11   A(1,8,10)             121.1696         -DE/DX =    0.0                 !
 ! A12   A(9,8,10)             116.3143         -DE/DX =    0.0                 !
 ! D1    D(2,1,3,4)              0.0091         -DE/DX =    0.0                 !
 ! D2    D(2,1,3,5)           -179.9999         -DE/DX =    0.0                 !
 ! D3    D(8,1,3,4)           -179.9666         -DE/DX =    0.0                 !
 ! D4    D(8,1,3,5)              0.0244         -DE/DX =    0.0                 !
 ! D5    D(2,1,8,9)           -180.0092         -DE/DX =    0.0                 !
 ! D6    D(2,1,8,10)            -0.0166         -DE/DX =    0.0                 !
 ! D7    D(3,1,8,9)             -0.0341         -DE/DX =    0.0                 !
 ! D8    D(3,1,8,10)           179.9584         -DE/DX =    0.0                 !
 ! D9    D(1,3,5,6)             -0.0113         -DE/DX =    0.0                 !
 ! D10   D(1,3,5,7)            179.9939         -DE/DX =    0.0                 !
 ! D11   D(4,3,5,6)            179.9795         -DE/DX =    0.0                 !
 ! D12   D(4,3,5,7)             -0.0153         -DE/DX =    0.0                 !
 --------------------------------------------------------------------------------
 Summary of Optimized Potential Surface Scan (add -155.0 to energies):
                           1         2         3         4         5
     Eigenvalues --    -0.99214  -0.99096  -0.98773  -0.98356  -0.98050
           R1           1.09047   1.09050   1.09058   1.09082   1.09152
           R2           1.45749   1.45958   1.46597   1.47684   1.48638
           R3           1.34056   1.34024   1.33918   1.33732   1.33496
           R4           1.09047   1.09053   1.09064   1.09069   1.09129
           R5           1.34056   1.34030   1.33929   1.33740   1.33496
           R6           1.08792   1.08795   1.08800   1.08797   1.08773
           R7           1.08580   1.08587   1.08607   1.08648   1.08685
           R8           1.08792   1.08797   1.08805   1.08806   1.08777
           R9           1.08580   1.08585   1.08599   1.08636   1.08680
           A1         116.24619 116.36004 116.67481 116.86843 116.65610
           A2         119.44266 119.30060 118.99004 118.73511 118.80426
           A3         124.31115 124.25037 124.04322 124.02983 124.42952
           A4         116.24619 116.22780 116.19143 116.25463 116.43600
           A5         124.31115 124.32711 124.39969 124.51821 124.61535
           A6         119.44266 119.29546 118.97509 118.81014 118.90528
           A7         121.54594 121.58126 121.67443 121.79151 121.81224
           A8         121.83156 121.79516 121.69723 121.60281 121.52280
           A9         116.62249 116.61928 116.61488 116.59455 116.66412
           A10        121.54594 121.58162 121.66193 121.78887 121.83821
           A11        121.83156 121.79530 121.70861 121.59819 121.48557
           A12        116.62249 116.61834 116.61497 116.59754 116.67252
           D1         180.00000-166.49251-151.66129-133.52545-110.42979
           D2           0.00000  17.99991  36.00011  53.99999  71.99998
           D3           0.00000  10.04241  22.05362  39.41722  65.69763
           D4         180.00000-165.46517-150.28498-133.05734-111.87260
           D5         180.00000 177.75465 176.13240 176.09902 178.32456
           D6           0.00000  -3.06389  -5.29912  -5.37718  -2.39836
           D7           0.00000   1.31504   2.55361   3.27927   2.27436
           D8         180.00000-179.50350-178.87791-178.19692-178.44856
           D9           0.00000  -3.16253  -5.34618  -5.05045  -1.42475
           D10        180.00000 177.61706 176.03410 176.20475 178.92062
           D11        180.00000-178.54138-177.48656-177.34689-178.93940
           D12          0.00000   2.23821   3.89372   3.90831   1.40597
                           6         7         8         9        10
     Eigenvalues --    -0.98049  -0.98272  -0.98512  -0.98638  -0.98631
           R1           1.09222   1.09231   1.09172   1.09087   1.09007
           R2           1.48625   1.47949   1.47358   1.47040   1.47049
           R3           1.33423   1.33544   1.33724   1.33873   1.33967
           R4           1.09243   1.09242   1.09172   1.09092   1.09008
           R5           1.33422   1.33560   1.33739   1.33879   1.33961
           R6           1.08740   1.08716   1.08712   1.08718   1.08725
           R7           1.08703   1.08697   1.08670   1.08633   1.08597
           R8           1.08737   1.08718   1.08719   1.08720   1.08722
           R9           1.08704   1.08689   1.08660   1.08630   1.08600
           A1         116.19720 116.03408 116.04884 115.83203 115.26000
           A2         118.99519 119.05702 119.04021 118.73287 118.16930
           A3         124.78604 124.78402 124.85913 125.43413 126.54234
           A4         116.37041 116.42622 116.29951 115.88395 115.21791
           A5         124.61128 124.43958 124.66075 125.40939 126.56296
           A6         118.90440 118.86839 118.87898 118.67007 118.21841
           A7         121.65239 121.44036 121.39068 121.64101 122.14496
           A8         121.52387 121.56999 121.61380 121.53555 121.32604
           A9         116.81992 116.98611 116.99539 116.82137 116.52436
           A10        121.64370 121.43437 121.38209 121.62559 122.16599
           A11        121.54879 121.62060 121.65447 121.54790 121.30894
           A12        116.80722 116.94024 116.95690 116.82164 116.52294
           D1         -86.06352 -65.99106 -49.32344 -33.76018 -17.68417
           D2          90.00010 108.00016 126.00007 144.00013 162.00008
           D3          95.64948 118.12575 133.33013 145.87513 160.32996
           D4         -88.28690 -67.88303 -51.34636 -36.36456 -19.98579
           D5        -179.08553-179.08220 179.11854 177.07044 176.83956
           D6           1.11955   1.73778   0.07698  -2.10174  -2.61090
           D7          -0.84284  -3.31411  -3.60836  -2.55522  -1.12314
           D8         179.36224 177.50587 177.35009 178.27260 179.42640
           D9           2.61706   2.98945   0.94791  -1.38858  -2.17361
           D10       -178.11659-177.71452-179.18799 179.15095 178.63788
           D11        178.58829 176.84445 176.15982 176.31482 177.50221
           D12         -2.14536  -3.85952  -3.97608  -3.14565  -1.68631
                          11
     Eigenvalues --    -0.98595
           R1           1.08964
           R2           1.47148
           R3           1.33991
           R4           1.08964
           R5           1.33992
           R6           1.08725
           R7           1.08585
           R8           1.08726
           R9           1.08585
           A1         114.84688
           A2         117.88733
           A3         127.26579
           A4         114.85671
           A5         127.27088
           A6         117.87241
           A7         122.52632
           A8         121.16038
           A9         116.31330
           A10        122.51602
           A11        121.16964
           A12        116.31434
           D1           0.00907
           D2        -179.99993
           D3        -179.96660
           D4           0.02439
           D5        -180.00918
           D6          -0.01659
           D7          -0.03415
           D8         179.95844
           D9          -0.01130
           D10        179.99389
           D11        179.97946
           D12         -0.01535
 GradGradGradGradGradGradGradGradGradGradGradGradGradGradGradGradGradGrad

                          Input orientation:                          
 ---------------------------------------------------------------------
 Center     Atomic      Atomic             Coordinates (Angstroms)
 Number     Number       Type             X           Y           Z
 ---------------------------------------------------------------------
      1          6           0       -0.064027    0.738753    0.616209
      2          1           0       -0.113280    1.203240    1.600655
      3          6           0        0.045196   -0.728611    0.629634
      4          1           0        0.063771   -1.177461    1.622358
      5          6           0        0.121891   -1.546299   -0.429081
      6          1           0        0.109597   -1.180050   -1.452715
      7          1           0        0.200346   -2.622029   -0.303661
      8          6           0       -0.108235    1.539250   -0.457386
      9          1           0       -0.064478    1.156398   -1.474064
     10          1           0       -0.190782    2.616809   -0.351950
 ---------------------------------------------------------------------
                    Distance matrix (angstroms):
                    1          2          3          4          5
     1  C    0.000000
     2  H    1.089637   0.000000
     3  C    1.471484   2.167958   0.000000
     4  H    2.168074   2.387374   1.089638   0.000000
     5  C    2.519654   3.425653   1.339916   2.085143   0.000000
     6  H    2.827082   3.879795   2.131695   3.075415   1.087251
     7  H    3.494410   4.284560   2.116635   2.411426   1.085854
     8  C    1.339909   2.085297   2.519592   3.425702   3.094248
     9  H    2.131588   3.075464   2.826806   3.879584   2.903669
    10  H    2.116717   2.411815   3.494428   4.284760   4.175546
                    6          7          8          9         10
     6  H    0.000000
     7  H    1.846040   0.000000
     8  C    2.903915   4.175535   0.000000
     9  H    2.343021   3.964402   1.087256   0.000000
    10  H    3.964599   5.253640   1.085847   1.846048   0.000000
 Stoichiometry    C4H6
 Framework group  C1[X(C4H6)]
 Deg. of freedom    24
 Full point group                 C1      NOp   1
 Largest Abelian subgroup         C1      NOp   1
 Largest concise Abelian subgroup C1      NOp   1
                         Standard orientation:                         
 ---------------------------------------------------------------------
 Center     Atomic      Atomic             Coordinates (Angstroms)
 Number     Number       Type             X           Y           Z
 ---------------------------------------------------------------------
      1          6           0        0.735772    0.563123    0.000166
      2          1           0        1.193612    1.551906    0.000091
      3          6           0       -0.735712    0.563095   -0.000031
      4          1           0       -1.193761    1.551782   -0.000385
      5          6           0       -1.547123   -0.503201    0.000009
      6          1           0       -1.171628   -1.523553    0.000020
      7          1           0       -2.626811   -0.387637   -0.000053
      8          6           0        1.547125   -0.503208   -0.000031
      9          1           0        1.171393   -1.523477    0.000173
     10          1           0        2.626829   -0.387873   -0.000527
 ---------------------------------------------------------------------
 Rotational constants (GHZ):          21.4930028           5.6162835           4.4527472

 **********************************************************************

            Population analysis using the SCF Density.

 **********************************************************************

 Orbital symmetries:
       Occupied  (A) (A) (A) (A) (A) (A) (A) (A) (A) (A) (A) (A)
                 (A) (A) (A)
       Virtual   (A) (A) (A) (A) (A) (A) (A) (A) (A) (A) (A) (A)
                 (A) (A) (A) (A) (A) (A) (A) (A) (A) (A) (A) (A)
                 (A) (A) (A) (A) (A) (A) (A) (A) (A) (A) (A) (A)
                 (A) (A) (A) (A) (A) (A) (A) (A) (A) (A) (A) (A)
                 (A) (A) (A) (A) (A) (A) (A) (A) (A)
 The electronic state is 1-A.
 Alpha  occ. eigenvalues --  -10.19202 -10.19171 -10.18282 -10.18282  -0.79823
 Alpha  occ. eigenvalues --   -0.72473  -0.61822  -0.52663  -0.48754  -0.43656
 Alpha  occ. eigenvalues --   -0.41617  -0.35980  -0.34784  -0.31706  -0.22734
 Alpha virt. eigenvalues --   -0.03014   0.09641   0.10083   0.11473   0.15315
 Alpha virt. eigenvalues --    0.19205   0.20160   0.21005   0.30622   0.34056
 Alpha virt. eigenvalues --    0.43249   0.46726   0.52744   0.53218   0.58674
 Alpha virt. eigenvalues --    0.59540   0.62693   0.64102   0.67721   0.68958
 Alpha virt. eigenvalues --    0.69326   0.83376   0.86038   0.88104   0.89354
 Alpha virt. eigenvalues --    0.93015   0.95610   0.98678   1.05504   1.07752
 Alpha virt. eigenvalues --    1.18331   1.23852   1.34036   1.45810   1.48270
 Alpha virt. eigenvalues --    1.52120   1.65584   1.75243   1.77703   1.87984
 Alpha virt. eigenvalues --    1.96076   2.00784   2.10511   2.16308   2.21987
 Alpha virt. eigenvalues --    2.25179   2.27873   2.54168   2.54996   2.55362
 Alpha virt. eigenvalues --    2.62113   2.86555   3.07912   4.06612   4.14858
 Alpha virt. eigenvalues --    4.20071   4.48266
          Condensed to atoms (all electrons):
               1          2          3          4          5          6
     1  C    4.752997   0.364292   0.448125  -0.043431  -0.038769  -0.012443
     2  H    0.364292   0.612885  -0.043437  -0.006887   0.006462   0.000017
     3  C    0.448125  -0.043437   4.753048   0.364293   0.653696  -0.030978
     4  H   -0.043431  -0.006887   0.364293   0.612886  -0.057728   0.006019
     5  C   -0.038769   0.006462   0.653696  -0.057728   5.057210   0.364838
     6  H   -0.012443   0.000017  -0.030978   0.006019   0.364838   0.566510
     7  H    0.004446  -0.000167  -0.020410  -0.008384   0.364735  -0.043082
     8  C    0.653700  -0.057728  -0.038763   0.006461  -0.021266   0.005186
     9  H   -0.030974   0.006019  -0.012450   0.000017   0.005191   0.003280
    10  H   -0.020412  -0.008378   0.004445  -0.000167   0.000081  -0.000102
               7          8          9         10
     1  C    0.004446   0.653700  -0.030974  -0.020412
     2  H   -0.000167  -0.057728   0.006019  -0.008378
     3  C   -0.020410  -0.038763  -0.012450   0.004445
     4  H   -0.008384   0.006461   0.000017  -0.000167
     5  C    0.364735  -0.021266   0.005191   0.000081
     6  H   -0.043082   0.005186   0.003280  -0.000102
     7  H    0.558557   0.000081  -0.000102   0.000001
     8  C    0.000081   5.057220   0.364830   0.364741
     9  H   -0.000102   0.364830   0.566514  -0.043080
    10  H    0.000001   0.364741  -0.043080   0.558531
 Mulliken charges:
               1
     1  C   -0.077532
     2  H    0.126922
     3  C   -0.077569
     4  H    0.126921
     5  C   -0.334451
     6  H    0.140755
     7  H    0.144325
     8  C   -0.334464
     9  H    0.140755
    10  H    0.144338
 Sum of Mulliken charges =  -0.00000
 Mulliken charges with hydrogens summed into heavy atoms:
               1
     1  C    0.049390
     3  C    0.049352
     5  C   -0.049371
     8  C   -0.049371
 Electronic spatial extent (au):  <R**2>=            308.6668
 Charge=             -0.0000 electrons
 Dipole moment (field-independent basis, Debye):
    X=              0.0000    Y=              0.0852    Z=             -0.0004  Tot=              0.0852
 Quadrupole moment (field-independent basis, Debye-Ang):
   XX=            -22.7347   YY=            -22.4608   ZZ=            -27.9023
   XY=             -0.0003   XZ=             -0.0006   YZ=             -0.0004
 Traceless Quadrupole moment (field-independent basis, Debye-Ang):
   XX=              1.6313   YY=              1.9051   ZZ=             -3.5364
   XY=             -0.0003   XZ=             -0.0006   YZ=             -0.0004
 Octapole moment (field-independent basis, Debye-Ang**2):
  XXX=              0.0010  YYY=              0.2938  ZZZ=             -0.0006  XYY=             -0.0003
  XXY=              0.1136  XXZ=             -0.0037  XZZ=              0.0001  YZZ=              0.2105
  YYZ=             -0.0004  XYZ=              0.0007
 Hexadecapole moment (field-independent basis, Debye-Ang**3):
 XXXX=           -264.2287 YYYY=            -95.2296 ZZZZ=            -28.9119 XXXY=             -0.0041
 XXXZ=             -0.0079 YYYX=              0.0013 YYYZ=             -0.0016 ZZZX=             -0.0007
 ZZZY=             -0.0003 XXYY=            -64.1198 XXZZ=            -59.1306 YYZZ=            -23.0017
 XXYZ=             -0.0000 YYXZ=              0.0012 ZZXY=             -0.0001
 N-N= 1.044457333906D+02 E-N=-5.693412891313D+02  KE= 1.543938916895D+02
 1\1\GINC-GADOLINIO\Scan\RB3LYP\6-31G(d)\C4H6\MASTER3\03-May-2019\0\\# 
 opt=modredundant b3lyp/6-31g* geom=connectivity\\Butadiene scan\\0,1\C
 ,-0.064027141,0.7387526622,0.6162085433\H,-0.1132801064,1.2032395526,1
 .6006554019\C,0.045195912,-0.7286105374,0.6296344803\H,0.0637712948,-1
 .1774608297,1.6223578318\C,0.1218913603,-1.5462990381,-0.4290809537\H,
 0.1095974632,-1.1800498523,-1.4527146541\H,0.2003464552,-2.6220287069,
 -0.3036606505\C,-0.1082354205,1.539249788,-0.4573859202\H,-0.064477889
 3,1.1563981349,-1.4740641459\H,-0.1907819283,2.6168088265,-0.351949933
 \\Version=EM64L-G16RevB.01\State=1-A\HF=-155.9921396,-155.9909564,-155
 .9877323,-155.9835587,-155.9804999,-155.9804859,-155.9827209,-155.9851
 211,-155.9863846,-155.9863132,-155.9859513\RMSD=8.342e-09,2.139e-09,6.
 330e-09,9.443e-09,8.277e-09,4.535e-09,3.361e-09,1.451e-09,7.711e-09,3.
 568e-09,7.920e-09\PG=C01 [X(C4H6)]\\@


      HUMANKIND PERIODICALLY GOES THROUGH A SPEEDUP OF ITS AFFAIRS, 
      THEREBY EXPERIENCING THE RACE BETWEEN THE RENEWABLE VITALITY
      OF THE LIVING, AND THE BECKONING VITIATION OF DECADENCE.
      IN THIS PERIODIC RACE, ANY PAUSE BECOMES A LUXURY.
      ONLY THEN CAN ONE REFLECT THAT ALL IS PERMITTED;
      ALL IS POSSIBLE.

                              -- THE APOCRYPHA OF MUAD'DIB
                                 CHILDREN OF DUNE, BY FRANK HERBERT
 Job cpu time:       0 days  0 hours 16 minutes 46.1 seconds.
 Elapsed time:       0 days  0 hours 16 minutes 45.3 seconds.
 File lengths (MBytes):  RWF=     10 Int=      0 D2E=      0 Chk=      2 Scr=      1
 Normal termination of Gaussian 16 at Fri May  3 15:07:14 2019.
