 Entering Gaussian System, Link 0=g16
 Initial command:
 /usr/local/gaussian/gaussian16.b1-legacy/g16/l1.exe "/scratch/sonatak/Gau-30944.inp" -scrdir="/scratch/sonatak/"
 Entering Link 1 = /usr/local/gaussian/gaussian16.b1-legacy/g16/l1.exe PID=     30945.
  
 Copyright (c) 1988-2017, Gaussian, Inc.  All Rights Reserved.
  
 This is part of the Gaussian(R) 16 program.  It is based on
 the Gaussian(R) 09 system (copyright 2009, Gaussian, Inc.),
 the Gaussian(R) 03 system (copyright 2003, Gaussian, Inc.),
 the Gaussian(R) 98 system (copyright 1998, Gaussian, Inc.),
 the Gaussian(R) 94 system (copyright 1995, Gaussian, Inc.),
 the Gaussian 92(TM) system (copyright 1992, Gaussian, Inc.),
 the Gaussian 90(TM) system (copyright 1990, Gaussian, Inc.),
 the Gaussian 88(TM) system (copyright 1988, Gaussian, Inc.),
 the Gaussian 86(TM) system (copyright 1986, Carnegie Mellon
 University), and the Gaussian 82(TM) system (copyright 1983,
 Carnegie Mellon University). Gaussian is a federally registered
 trademark of Gaussian, Inc.
  
 This software contains proprietary and confidential information,
 including trade secrets, belonging to Gaussian, Inc.
  
 This software is provided under written license and may be
 used, copied, transmitted, or stored only in accord with that
 written license.
  
 The following legend is applicable only to US Government
 contracts under FAR:
  
                    RESTRICTED RIGHTS LEGEND
  
 Use, reproduction and disclosure by the US Government is
 subject to restrictions as set forth in subparagraphs (a)
 and (c) of the Commercial Computer Software - Restricted
 Rights clause in FAR 52.227-19.
  
 Gaussian, Inc.
 340 Quinnipiac St., Bldg. 40, Wallingford CT 06492
  
  
 ---------------------------------------------------------------
 Warning -- This program may not be used in any manner that
 competes with the business of Gaussian, Inc. or will provide
 assistance to any competitor of Gaussian, Inc.  The licensee
 of this program is prohibited from giving any competitor of
 Gaussian, Inc. access to this program.  By using this program,
 the user acknowledges that Gaussian, Inc. is engaged in the
 business of creating and licensing software in the field of
 computational chemistry and represents and warrants to the
 licensee that it is not a competitor of Gaussian, Inc. and that
 it will not use this program in any manner prohibited above.
 ---------------------------------------------------------------
  

 Cite this work as:
 Gaussian 16, Revision B.01,
 M. J. Frisch, G. W. Trucks, H. B. Schlegel, G. E. Scuseria, 
 M. A. Robb, J. R. Cheeseman, G. Scalmani, V. Barone, 
 G. A. Petersson, H. Nakatsuji, X. Li, M. Caricato, A. V. Marenich, 
 J. Bloino, B. G. Janesko, R. Gomperts, B. Mennucci, H. P. Hratchian, 
 J. V. Ortiz, A. F. Izmaylov, J. L. Sonnenberg, D. Williams-Young, 
 F. Ding, F. Lipparini, F. Egidi, J. Goings, B. Peng, A. Petrone, 
 T. Henderson, D. Ranasinghe, V. G. Zakrzewski, J. Gao, N. Rega, 
 G. Zheng, W. Liang, M. Hada, M. Ehara, K. Toyota, R. Fukuda, 
 J. Hasegawa, M. Ishida, T. Nakajima, Y. Honda, O. Kitao, H. Nakai, 
 T. Vreven, K. Throssell, J. A. Montgomery, Jr., J. E. Peralta, 
 F. Ogliaro, M. J. Bearpark, J. J. Heyd, E. N. Brothers, K. N. Kudin, 
 V. N. Staroverov, T. A. Keith, R. Kobayashi, J. Normand, 
 K. Raghavachari, A. P. Rendell, J. C. Burant, S. S. Iyengar, 
 J. Tomasi, M. Cossi, J. M. Millam, M. Klene, C. Adamo, R. Cammi, 
 J. W. Ochterski, R. L. Martin, K. Morokuma, O. Farkas, 
 J. B. Foresman, and D. J. Fox, Gaussian, Inc., Wallingford CT, 2016.
 
 ******************************************
 Gaussian 16:  EM64L-G16RevB.01 20-Dec-2017
                29-Apr-2019 
 ******************************************
 %chk= /home/sonatak/tfm/opt+freq.chk
 ----------------------------------------------------------
 # opt=(verytight) b3lyp/6-31g* freq=IntModes Int=Ultrafine
 ----------------------------------------------------------
 1/7=1,18=20,19=15,26=4,38=1/1,3;
 2/9=110,12=2,17=6,18=5,40=1/2;
 3/5=1,6=6,7=1,11=2,25=1,30=1,71=1,74=-5,75=-5/1,2,3;
 4//1;
 5/5=2,38=5/2;
 6/7=2,8=2,9=2,10=2,28=1/1;
 7//1,2,3,16;
 1/7=1,18=20,19=15,26=4/3(2);
 2/9=110/2;
 99//99;
 2/9=110/2;
 3/5=1,6=6,7=1,11=2,25=1,30=1,71=1,74=-5,75=-5/1,2,3;
 4/5=5,16=3,69=1/1;
 5/5=2,38=5/2;
 7//1,2,3,16;
 1/7=1,18=20,19=15,26=4/3(-5);
 2/9=110/2;
 6/7=2,8=2,9=2,10=2,19=2,28=1/1;
 99/9=1/99;
 --------------------------------------
 Butadiene optimization and frequencies
 --------------------------------------
 Symbolic Z-matrix:
 Charge =  0 Multiplicity = 1
 C                     0.6319    0.44      0. 
 H                     0.53933   1.50599   0. 
 C                    -0.6319   -0.44      0. 
 H                    -0.53933  -1.50599   0. 
 C                    -1.8609    0.13109   0. 
 H                    -1.9598    1.19651   0. 
 H                    -2.73535  -0.48554   0. 
 C                     1.8609   -0.13109   0. 
 H                     1.9598   -1.19651   0. 
 H                     2.73535   0.48554   0. 
 

 GradGradGradGradGradGradGradGradGradGradGradGradGradGradGradGradGradGrad
 Berny optimization.
 Initialization pass.
                           ----------------------------
                           !    Initial Parameters    !
                           ! (Angstroms and Degrees)  !
 --------------------------                            --------------------------
 ! Name  Definition              Value          Derivative Info.                !
 --------------------------------------------------------------------------------
 ! R1    R(1,2)                  1.07           estimate D2E/DX2                !
 ! R2    R(1,3)                  1.54           estimate D2E/DX2                !
 ! R3    R(1,8)                  1.3552         estimate D2E/DX2                !
 ! R4    R(3,4)                  1.07           estimate D2E/DX2                !
 ! R5    R(3,5)                  1.3552         estimate D2E/DX2                !
 ! R6    R(5,6)                  1.07           estimate D2E/DX2                !
 ! R7    R(5,7)                  1.07           estimate D2E/DX2                !
 ! R8    R(8,9)                  1.07           estimate D2E/DX2                !
 ! R9    R(8,10)                 1.07           estimate D2E/DX2                !
 ! A1    A(2,1,3)              119.8865         estimate D2E/DX2                !
 ! A2    A(2,1,8)              119.8865         estimate D2E/DX2                !
 ! A3    A(3,1,8)              120.2269         estimate D2E/DX2                !
 ! A4    A(1,3,4)              119.8865         estimate D2E/DX2                !
 ! A5    A(1,3,5)              120.2269         estimate D2E/DX2                !
 ! A6    A(4,3,5)              119.8865         estimate D2E/DX2                !
 ! A7    A(3,5,6)              120.2269         estimate D2E/DX2                !
 ! A8    A(3,5,7)              119.8865         estimate D2E/DX2                !
 ! A9    A(6,5,7)              119.8865         estimate D2E/DX2                !
 ! A10   A(1,8,9)              120.2269         estimate D2E/DX2                !
 ! A11   A(1,8,10)             119.8865         estimate D2E/DX2                !
 ! A12   A(9,8,10)             119.8865         estimate D2E/DX2                !
 ! D1    D(2,1,3,4)            180.0            estimate D2E/DX2                !
 ! D2    D(2,1,3,5)              0.0            estimate D2E/DX2                !
 ! D3    D(8,1,3,4)              0.0            estimate D2E/DX2                !
 ! D4    D(8,1,3,5)            180.0            estimate D2E/DX2                !
 ! D5    D(2,1,8,9)            180.0            estimate D2E/DX2                !
 ! D6    D(2,1,8,10)             0.0            estimate D2E/DX2                !
 ! D7    D(3,1,8,9)              0.0            estimate D2E/DX2                !
 ! D8    D(3,1,8,10)           180.0            estimate D2E/DX2                !
 ! D9    D(1,3,5,6)              0.0            estimate D2E/DX2                !
 ! D10   D(1,3,5,7)            180.0            estimate D2E/DX2                !
 ! D11   D(4,3,5,6)            180.0            estimate D2E/DX2                !
 ! D12   D(4,3,5,7)              0.0            estimate D2E/DX2                !
 --------------------------------------------------------------------------------
 Trust Radius=3.00D-01 FncErr=1.00D-07 GrdErr=1.00D-06 EigMax=2.50D+02 EigMin=1.00D-04
 Number of steps in this run=     43 maximum allowed number of steps=    100.
 GradGradGradGradGradGradGradGradGradGradGradGradGradGradGradGradGradGrad

                          Input orientation:                          
 ---------------------------------------------------------------------
 Center     Atomic      Atomic             Coordinates (Angstroms)
 Number     Number       Type             X           Y           Z
 ---------------------------------------------------------------------
      1          6           0        0.631903    0.439999    0.000000
      2          1           0        0.539330    1.505986    0.000000
      3          6           0       -0.631903   -0.439999    0.000000
      4          1           0       -0.539330   -1.505986    0.000000
      5          6           0       -1.860897    0.131089    0.000000
      6          1           0       -1.959802    1.196508    0.000000
      7          1           0       -2.735348   -0.485544    0.000000
      8          6           0        1.860897   -0.131089    0.000000
      9          1           0        1.959802   -1.196508    0.000000
     10          1           0        2.735348    0.485544    0.000000
 ---------------------------------------------------------------------
                    Distance matrix (angstroms):
                    1          2          3          4          5
     1  C    0.000000
     2  H    1.070000   0.000000
     3  C    1.540000   2.271265   0.000000
     4  H    2.271265   3.199295   1.070000   0.000000
     5  C    2.511867   2.766123   1.355200   2.103938   0.000000
     6  H    2.699859   2.518221   2.107479   3.053066   1.070000
     7  H    3.492135   3.832716   2.103938   2.421527   1.070000
     8  C    1.355200   2.103938   2.511867   2.766123   3.731017
     9  H    2.107479   3.053066   2.699859   2.518221   4.044781
    10  H    2.103938   2.421527   3.492135   3.832716   4.609892
                    6          7          8          9         10
     6  H    0.000000
     7  H    1.852234   0.000000
     8  C    4.044781   4.609892   0.000000
     9  H    4.592365   4.748673   1.070000   0.000000
    10  H    4.748673   5.556214   1.070000   1.852234   0.000000
 Stoichiometry    C4H6
 Framework group  C2H[SGH(C4H6)]
 Deg. of freedom     9
 Full point group                 C2H     NOp   4
 Largest Abelian subgroup         C2H     NOp   4
 Largest concise Abelian subgroup C2      NOp   2
                         Standard orientation:                         
 ---------------------------------------------------------------------
 Center     Atomic      Atomic             Coordinates (Angstroms)
 Number     Number       Type             X           Y           Z
 ---------------------------------------------------------------------
      1          6           0       -0.358947    0.681217    0.000000
      2          1           0       -1.428228    0.720443    0.000000
      3          6           0        0.358947   -0.681217    0.000000
      4          1           0        1.428228   -0.720443    0.000000
      5          6           0       -0.358947   -1.830650    0.000000
      6          1           0       -1.428442   -1.797778    0.000000
      7          1           0        0.145465   -2.774296    0.000000
      8          6           0        0.358947    1.830650    0.000000
      9          1           0        1.428442    1.797778    0.000000
     10          1           0       -0.145465    2.774296    0.000000
 ---------------------------------------------------------------------
 Rotational constants (GHZ):          38.9066132           4.3527853           3.9148055
 Standard basis: 6-31G(d) (6D, 7F)
 There are    28 symmetry adapted cartesian basis functions of AG  symmetry.
 There are     8 symmetry adapted cartesian basis functions of BG  symmetry.
 There are     8 symmetry adapted cartesian basis functions of AU  symmetry.
 There are    28 symmetry adapted cartesian basis functions of BU  symmetry.
 There are    28 symmetry adapted basis functions of AG  symmetry.
 There are     8 symmetry adapted basis functions of BG  symmetry.
 There are     8 symmetry adapted basis functions of AU  symmetry.
 There are    28 symmetry adapted basis functions of BU  symmetry.
    72 basis functions,   136 primitive gaussians,    72 cartesian basis functions
    15 alpha electrons       15 beta electrons
       nuclear repulsion energy       102.4724596192 Hartrees.
 NAtoms=   10 NActive=   10 NUniq=    5 SFac= 4.00D+00 NAtFMM=   60 NAOKFM=F Big=F
 Integral buffers will be    131072 words long.
 Raffenetti 2 integral format.
 Two-electron integral symmetry is turned on.
 One-electron integrals computed using PRISM.
 NBasis=    72 RedAO= T EigKep=  4.04D-03  NBF=    28     8     8    28
 NBsUse=    72 1.00D-06 EigRej= -1.00D+00 NBFU=    28     8     8    28
 ExpMin= 1.61D-01 ExpMax= 3.05D+03 ExpMxC= 4.57D+02 IAcc=3 IRadAn=         5 AccDes= 0.00D+00
 Harris functional with IExCor=  402 and IRadAn=       5 diagonalized for initial guess.
 HarFok:  IExCor=  402 AccDes= 0.00D+00 IRadAn=         5 IDoV= 1 UseB2=F ITyADJ=14
 ICtDFT=  3500011 ScaDFX=  1.000000  1.000000  1.000000  1.000000
 FoFCou: FMM=F IPFlag=           0 FMFlag=      100000 FMFlg1=           0
         NFxFlg=           0 DoJE=T BraDBF=F KetDBF=T FulRan=T
         wScrn=  0.000000 ICntrl=       500 IOpCl=  0 I1Cent=   200000004 NGrid=           0
         NMat0=    1 NMatS0=      1 NMatT0=    0 NMatD0=    1 NMtDS0=    0 NMtDT0=    0
 Petite list used in FoFCou.
 Initial guess orbital symmetries:
       Occupied  (AG) (BU) (AG) (BU) (AG) (BU) (AG) (BU) (AG) (BU)
                 (AG) (BU) (AG) (AU) (BG)
       Virtual   (AU) (BG) (BU) (AG) (BU) (BU) (AG) (AG) (BU) (AG)
                 (BU) (BU) (AG) (AU) (BG) (BU) (AG) (AG) (BU) (BG)
                 (AU) (AG) (BU) (AG) (BU) (AG) (BU) (BU) (AG) (AG)
                 (BU) (AU) (AG) (BU) (BG) (AU) (BG) (AU) (AG) (AG)
                 (BU) (BU) (BG) (BU) (AG) (AG) (AU) (BU) (BG) (AG)
                 (BU) (BU) (AG) (AG) (BU) (AG) (BU)
 The electronic state of the initial guess is 1-AG.
 Keep R1 ints in memory in symmetry-blocked form, NReq=4414629.
 Requested convergence on RMS density matrix=1.00D-08 within 128 cycles.
 Requested convergence on MAX density matrix=1.00D-06.
 Requested convergence on             energy=1.00D-06.
 No special actions if energy rises.
 Integral accuracy reduced to 1.0D-05 until final iterations.
 Initial convergence to 1.0D-05 achieved.  Increase integral accuracy.
 SCF Done:  E(RB3LYP) =  -155.984970988     A.U. after   11 cycles
            NFock= 11  Conv=0.72D-08     -V/T= 2.0106

 **********************************************************************

            Population analysis using the SCF Density.

 **********************************************************************

 Orbital symmetries:
       Occupied  (AG) (BU) (BU) (AG) (AG) (BU) (AG) (BU) (AG) (BU)
                 (BU) (AG) (AG) (AU) (BG)
       Virtual   (AU) (BG) (BU) (AG) (BU) (BU) (AG) (AG) (BU) (AG)
                 (BU) (BU) (AG) (AU) (BG) (BU) (AG) (BG) (BU) (AU)
                 (AG) (AG) (BU) (AG) (BU) (BU) (AG) (BU) (AG) (AG)
                 (BU) (AG) (BU) (AU) (BG) (AU) (BG) (AU) (AG) (AG)
                 (BU) (BU) (BG) (BU) (AG) (AG) (AU) (BU) (BG) (AG)
                 (BU) (BU) (AG) (AG) (BU) (AG) (BU)
 The electronic state is 1-AG.
 Alpha  occ. eigenvalues --  -10.19692 -10.19672 -10.18035 -10.18035  -0.79024
 Alpha  occ. eigenvalues --   -0.72839  -0.59479  -0.55703  -0.46403  -0.45694
 Alpha  occ. eigenvalues --   -0.39195  -0.38736  -0.34565  -0.30924  -0.22860
 Alpha virt. eigenvalues --   -0.01825   0.07050   0.12208   0.12855   0.13114
 Alpha virt. eigenvalues --    0.18045   0.18552   0.21255   0.31693   0.32356
 Alpha virt. eigenvalues --    0.37304   0.46995   0.52256   0.53503   0.58032
 Alpha virt. eigenvalues --    0.60548   0.61621   0.65489   0.66783   0.67288
 Alpha virt. eigenvalues --    0.68704   0.85846   0.86929   0.87650   0.89776
 Alpha virt. eigenvalues --    0.93424   0.94224   0.96917   1.06649   1.09315
 Alpha virt. eigenvalues --    1.13638   1.31598   1.35128   1.35886   1.43329
 Alpha virt. eigenvalues --    1.52694   1.65309   1.75289   1.75729   1.90231
 Alpha virt. eigenvalues --    1.96391   2.05538   2.09915   2.13244   2.16210
 Alpha virt. eigenvalues --    2.29191   2.38753   2.40667   2.40740   2.59168
 Alpha virt. eigenvalues --    2.70498   2.85612   2.91544   4.06064   4.13029
 Alpha virt. eigenvalues --    4.21432   4.42757
          Condensed to atoms (all electrons):
               1          2          3          4          5          6
     1  C    4.784482   0.368244   0.429708  -0.043506  -0.029488  -0.011098
     2  H    0.368244   0.589595  -0.043506   0.003818  -0.003988   0.004566
     3  C    0.429708  -0.043506   4.784482   0.368244   0.636810  -0.036894
     4  H   -0.043506   0.003818   0.368244   0.589595  -0.051195   0.005731
     5  C   -0.029488  -0.003988   0.636810  -0.051195   5.049587   0.373315
     6  H   -0.011098   0.004566  -0.036894   0.005731   0.373315   0.560499
     7  H    0.004105  -0.000005  -0.024600  -0.006700   0.365081  -0.040558
     8  C    0.636810  -0.051195  -0.029488  -0.003988   0.002530   0.000408
     9  H   -0.036894   0.005731  -0.011098   0.004566   0.000408   0.000015
    10  H   -0.024600  -0.006700   0.004105  -0.000005  -0.000203  -0.000006
               7          8          9         10
     1  C    0.004105   0.636810  -0.036894  -0.024600
     2  H   -0.000005  -0.051195   0.005731  -0.006700
     3  C   -0.024600  -0.029488  -0.011098   0.004105
     4  H   -0.006700  -0.003988   0.004566  -0.000005
     5  C    0.365081   0.002530   0.000408  -0.000203
     6  H   -0.040558   0.000408   0.000015  -0.000006
     7  H    0.559727  -0.000203  -0.000006   0.000003
     8  C   -0.000203   5.049587   0.373315   0.365081
     9  H   -0.000006   0.373315   0.560499  -0.040558
    10  H    0.000003   0.365081  -0.040558   0.559727
 Mulliken charges:
               1
     1  C   -0.077763
     2  H    0.133440
     3  C   -0.077763
     4  H    0.133440
     5  C   -0.342857
     6  H    0.144023
     7  H    0.143157
     8  C   -0.342857
     9  H    0.144023
    10  H    0.143157
 Sum of Mulliken charges =  -0.00000
 Mulliken charges with hydrogens summed into heavy atoms:
               1
     1  C    0.055677
     3  C    0.055677
     5  C   -0.055677
     8  C   -0.055677
 Electronic spatial extent (au):  <R**2>=            340.1307
 Charge=             -0.0000 electrons
 Dipole moment (field-independent basis, Debye):
    X=              0.0000    Y=              0.0000    Z=              0.0000  Tot=              0.0000
 Quadrupole moment (field-independent basis, Debye-Ang):
   XX=            -22.2377   YY=            -23.0860   ZZ=            -28.0290
   XY=             -0.3027   XZ=              0.0000   YZ=              0.0000
 Traceless Quadrupole moment (field-independent basis, Debye-Ang):
   XX=              2.2132   YY=              1.3649   ZZ=             -3.5781
   XY=             -0.3027   XZ=              0.0000   YZ=              0.0000
 Octapole moment (field-independent basis, Debye-Ang**2):
  XXX=             -0.0000  YYY=             -0.0000  ZZZ=              0.0000  XYY=             -0.0000
  XXY=             -0.0000  XXZ=              0.0000  XZZ=             -0.0000  YZZ=              0.0000
  YYZ=              0.0000  XYZ=              0.0000
 Hexadecapole moment (field-independent basis, Debye-Ang**3):
 XXXX=            -68.0050 YYYY=           -336.6451 ZZZZ=            -29.2501 XXXY=            -16.2958
 XXXZ=              0.0000 YYYX=            -23.1968 YYYZ=              0.0000 ZZZX=              0.0000
 ZZZY=              0.0000 XXYY=            -69.2790 XXZZ=            -18.2528 YYZZ=            -72.3316
 XXYZ=              0.0000 YYXZ=              0.0000 ZZXY=             -6.6628
 N-N= 1.024724596192D+02 E-N=-5.653477877233D+02  KE= 1.543419170097D+02
 Symmetry AG   KE= 7.656536587848D+01
 Symmetry BG   KE= 2.224361029131D+00
 Symmetry AU   KE= 1.956104823155D+00
 Symmetry BU   KE= 7.359608527890D+01
 Calling FoFJK, ICntrl=      2127 FMM=F ISym2X=1 I1Cent= 0 IOpClX= 0 NMat=1 NMatS=1 NMatT=0.
 ***** Axes restored to original set *****
 -------------------------------------------------------------------
 Center     Atomic                   Forces (Hartrees/Bohr)
 Number     Number              X              Y              Z
 -------------------------------------------------------------------
      1        6          -0.007966363   -0.058815693   -0.000000000
      2        1          -0.006859741    0.011576566   -0.000000000
      3        6           0.007966363    0.058815693   -0.000000000
      4        1           0.006859741   -0.011576566   -0.000000000
      5        6           0.028535530   -0.018801438   -0.000000000
      6        1          -0.004913612    0.011215159   -0.000000000
      7        1          -0.012109421   -0.002858791   -0.000000000
      8        6          -0.028535530    0.018801438   -0.000000000
      9        1           0.004913612   -0.011215159   -0.000000000
     10        1           0.012109421    0.002858791   -0.000000000
 -------------------------------------------------------------------
 Cartesian Forces:  Max     0.058815693 RMS     0.018576556

 GradGradGradGradGradGradGradGradGradGradGradGradGradGradGradGradGradGrad
 Berny optimization.
 FormGI is forming the generalized inverse of G from B-inverse, IUseBI=4.
 Internal  Forces:  Max     0.042640017 RMS     0.010555560
 Search for a local minimum.
 Step number   1 out of a maximum of   43
 All quantities printed in internal units (Hartrees-Bohrs-Radians)
 Mixed Optimization -- RFO/linear search
 Second derivative matrix not updated -- first step.
 ITU=  0
     Eigenvalues ---    0.00237   0.01459   0.01459   0.02681   0.02681
     Eigenvalues ---    0.02681   0.02681   0.16000   0.16000   0.16000
     Eigenvalues ---    0.16000   0.16000   0.16000   0.22000   0.22000
     Eigenvalues ---    0.28519   0.37230   0.37230   0.37230   0.37230
     Eigenvalues ---    0.37230   0.37230   0.53930   0.53930
 RFO step:  Lambda=-1.19725916D-02 EMin= 2.36824332D-03
 Linear search not attempted -- first point.
 Iteration  1 RMS(Cart)=  0.03757559 RMS(Int)=  0.00065052
 Iteration  2 RMS(Cart)=  0.00110750 RMS(Int)=  0.00000031
 Iteration  3 RMS(Cart)=  0.00000037 RMS(Int)=  0.00000000
 ClnCor:  largest displacement from symmetrization is 7.23D-13 for atom     8.
 Variable       Old X    -DE/DX   Delta X   Delta X   Delta X     New X
                                 (Linear)    (Quad)   (Total)
    R1        2.02201   0.01213   0.00000   0.03156   0.03156   2.05356
    R2        2.91018  -0.04264   0.00000  -0.14349  -0.14349   2.76669
    R3        2.56096  -0.01484   0.00000  -0.02692  -0.02692   2.53403
    R4        2.02201   0.01213   0.00000   0.03156   0.03156   2.05356
    R5        2.56096  -0.01484   0.00000  -0.02692  -0.02692   2.53403
    R6        2.02201   0.01162   0.00000   0.03024   0.03024   2.05225
    R7        2.02201   0.01154   0.00000   0.03004   0.03004   2.05205
    R8        2.02201   0.01162   0.00000   0.03024   0.03024   2.05225
    R9        2.02201   0.01154   0.00000   0.03004   0.03004   2.05205
    A1        2.09241  -0.01128   0.00000  -0.05748  -0.05748   2.03493
    A2        2.09241   0.00052   0.00000   0.01110   0.01110   2.10351
    A3        2.09836   0.01076   0.00000   0.04639   0.04639   2.14474
    A4        2.09241  -0.01128   0.00000  -0.05748  -0.05748   2.03493
    A5        2.09836   0.01076   0.00000   0.04639   0.04639   2.14474
    A6        2.09241   0.00052   0.00000   0.01110   0.01110   2.10351
    A7        2.09836   0.00207   0.00000   0.01203   0.01203   2.11039
    A8        2.09241   0.00366   0.00000   0.02128   0.02128   2.11369
    A9        2.09241  -0.00573   0.00000  -0.03331  -0.03331   2.05911
   A10        2.09836   0.00207   0.00000   0.01203   0.01203   2.11039
   A11        2.09241   0.00366   0.00000   0.02128   0.02128   2.11369
   A12        2.09241  -0.00573   0.00000  -0.03331  -0.03331   2.05911
    D1        3.14159  -0.00000   0.00000  -0.00000   0.00000   3.14159
    D2        0.00000  -0.00000   0.00000  -0.00000   0.00000   0.00000
    D3        0.00000  -0.00000   0.00000   0.00000   0.00000   0.00000
    D4        3.14159  -0.00000   0.00000   0.00000   0.00000   3.14159
    D5        3.14159   0.00000   0.00000   0.00000   0.00000   3.14159
    D6        0.00000   0.00000   0.00000   0.00000   0.00000   0.00000
    D7        0.00000   0.00000   0.00000   0.00000   0.00000   0.00000
    D8        3.14159  -0.00000   0.00000  -0.00000   0.00000   3.14159
    D9        0.00000   0.00000   0.00000  -0.00000   0.00000   0.00000
   D10        3.14159  -0.00000   0.00000  -0.00000   0.00000   3.14159
   D11        3.14159   0.00000   0.00000   0.00000   0.00000   3.14159
   D12        0.00000   0.00000   0.00000   0.00000   0.00000   0.00000
         Item               Value     Threshold  Converged?
 Maximum Force            0.042640     0.000002     NO 
 RMS     Force            0.010556     0.000001     NO 
 Maximum Displacement     0.101287     0.000006     NO 
 RMS     Displacement     0.037963     0.000004     NO 
 Predicted change in Energy=-6.239133D-03
 GradGradGradGradGradGradGradGradGradGradGradGradGradGradGradGradGradGrad

                          Input orientation:                          
 ---------------------------------------------------------------------
 Center     Atomic      Atomic             Coordinates (Angstroms)
 Number     Number       Type             X           Y           Z
 ---------------------------------------------------------------------
      1          6           0        0.612058    0.401570    0.000000
      2          1           0        0.485731    1.480901    0.000000
      3          6           0       -0.612058   -0.401570    0.000000
      4          1           0       -0.485731   -1.480901    0.000000
      5          6           0       -1.838536    0.140563    0.000000
      6          1           0       -1.972196    1.218310    0.000000
      7          1           0       -2.727530   -0.483024    0.000000
      8          6           0        1.838536   -0.140563    0.000000
      9          1           0        1.972196   -1.218310    0.000000
     10          1           0        2.727530    0.483024    0.000000
 ---------------------------------------------------------------------
                    Distance matrix (angstroms):
                    1          2          3          4          5
     1  C    0.000000
     2  H    1.086699   0.000000
     3  C    1.464068   2.179183   0.000000
     4  H    2.179183   3.117052   1.086699   0.000000
     5  C    2.464454   2.683044   1.340953   2.111688   0.000000
     6  H    2.710246   2.471914   2.115180   3.081448   1.086004
     7  H    3.454759   3.765906   2.117039   2.453858   1.085897
     8  C    1.340953   2.111688   2.464454   2.683044   3.687802
     9  H    2.115180   3.081448   2.710246   2.471914   4.045765
    10  H    2.117039   2.453858   3.454759   3.765906   4.578890
                    6          7          8          9         10
     6  H    0.000000
     7  H    1.861469   0.000000
     8  C    4.045765   4.578890   0.000000
     9  H    4.636308   4.756897   1.086004   0.000000
    10  H    4.756897   5.539939   1.085897   1.861469   0.000000
 Stoichiometry    C4H6
 Framework group  C2H[SGH(C4H6)]
 Deg. of freedom     9
 Full point group                 C2H     NOp   4
 Largest Abelian subgroup         C2H     NOp   4
 Largest concise Abelian subgroup C2      NOp   2
                         Standard orientation:                         
 ---------------------------------------------------------------------
 Center     Atomic      Atomic             Coordinates (Angstroms)
 Number     Number       Type             X           Y           Z
 ---------------------------------------------------------------------
      1          6           0       -0.334489    0.651146    0.000000
      2          1           0       -1.421130    0.639839    0.000000
      3          6           0        0.334489   -0.651146    0.000000
      4          1           0        1.421130   -0.639839    0.000000
      5          6           0       -0.334489   -1.813309    0.000000
      6          1           0       -1.420331   -1.832075    0.000000
      7          1           0        0.191439   -2.763346    0.000000
      8          6           0        0.334489    1.813309    0.000000
      9          1           0        1.420331    1.832075    0.000000
     10          1           0       -0.191439    2.763346    0.000000
 ---------------------------------------------------------------------
 Rotational constants (GHZ):          41.3695660           4.4551348           4.0220010
 Standard basis: 6-31G(d) (6D, 7F)
 There are    28 symmetry adapted cartesian basis functions of AG  symmetry.
 There are     8 symmetry adapted cartesian basis functions of BG  symmetry.
 There are     8 symmetry adapted cartesian basis functions of AU  symmetry.
 There are    28 symmetry adapted cartesian basis functions of BU  symmetry.
 There are    28 symmetry adapted basis functions of AG  symmetry.
 There are     8 symmetry adapted basis functions of BG  symmetry.
 There are     8 symmetry adapted basis functions of AU  symmetry.
 There are    28 symmetry adapted basis functions of BU  symmetry.
    72 basis functions,   136 primitive gaussians,    72 cartesian basis functions
    15 alpha electrons       15 beta electrons
       nuclear repulsion energy       103.6711088770 Hartrees.
 NAtoms=   10 NActive=   10 NUniq=    5 SFac= 4.00D+00 NAtFMM=   60 NAOKFM=F Big=F
 Integral buffers will be    131072 words long.
 Raffenetti 2 integral format.
 Two-electron integral symmetry is turned on.
 One-electron integrals computed using PRISM.
 NBasis=    72 RedAO= T EigKep=  3.60D-03  NBF=    28     8     8    28
 NBsUse=    72 1.00D-06 EigRej= -1.00D+00 NBFU=    28     8     8    28
 Initial guess from the checkpoint file:  "/home/sonatak/tfm/opt+freq.chk"
 B after Tr=     0.000000    0.000000    0.000000
         Rot=    0.999980   -0.000000   -0.000000   -0.006309 Ang=  -0.72 deg.
 Initial guess orbital symmetries:
       Occupied  (AG) (BU) (BU) (AG) (AG) (BU) (AG) (BU) (AG) (BU)
                 (BU) (AG) (AG) (AU) (BG)
       Virtual   (AU) (BG) (BU) (AG) (BU) (BU) (AG) (AG) (BU) (AG)
                 (BU) (BU) (AG) (AU) (BG) (BU) (AG) (BG) (BU) (AU)
                 (AG) (AG) (BU) (AG) (BU) (BU) (AG) (BU) (AG) (AG)
                 (BU) (AG) (BU) (AU) (BG) (AU) (BG) (AU) (AG) (AG)
                 (BU) (BU) (BG) (BU) (AG) (AG) (AU) (BU) (BG) (AG)
                 (BU) (BU) (AG) (AG) (BU) (AG) (BU)
 ExpMin= 1.61D-01 ExpMax= 3.05D+03 ExpMxC= 4.57D+02 IAcc=3 IRadAn=         5 AccDes= 0.00D+00
 Harris functional with IExCor=  402 and IRadAn=       5 diagonalized for initial guess.
 HarFok:  IExCor=  402 AccDes= 0.00D+00 IRadAn=         5 IDoV= 1 UseB2=F ITyADJ=14
 ICtDFT=  3500011 ScaDFX=  1.000000  1.000000  1.000000  1.000000
 FoFCou: FMM=F IPFlag=           0 FMFlag=      100000 FMFlg1=           0
         NFxFlg=           0 DoJE=T BraDBF=F KetDBF=T FulRan=T
         wScrn=  0.000000 ICntrl=       500 IOpCl=  0 I1Cent=   200000004 NGrid=           0
         NMat0=    1 NMatS0=      1 NMatT0=    0 NMatD0=    1 NMtDS0=    0 NMtDT0=    0
 Petite list used in FoFCou.
 Keep R1 ints in memory in symmetry-blocked form, NReq=4414629.
 Requested convergence on RMS density matrix=1.00D-08 within 128 cycles.
 Requested convergence on MAX density matrix=1.00D-06.
 Requested convergence on             energy=1.00D-06.
 No special actions if energy rises.
 Integral accuracy reduced to 1.0D-05 until final iterations.
 Initial convergence to 1.0D-05 achieved.  Increase integral accuracy.
 SCF Done:  E(RB3LYP) =  -155.991835223     A.U. after   10 cycles
            NFock= 10  Conv=0.59D-08     -V/T= 2.0102
 Calling FoFJK, ICntrl=      2127 FMM=F ISym2X=1 I1Cent= 0 IOpClX= 0 NMat=1 NMatS=1 NMatT=0.
 ***** Axes restored to original set *****
 -------------------------------------------------------------------
 Center     Atomic                   Forces (Hartrees/Bohr)
 Number     Number              X              Y              Z
 -------------------------------------------------------------------
      1        6          -0.001607557   -0.009970200   -0.000000000
      2        1           0.000217975    0.001972114   -0.000000000
      3        6           0.001607557    0.009970200   -0.000000000
      4        1          -0.000217975   -0.001972114   -0.000000000
      5        6           0.001211450   -0.005204735   -0.000000000
      6        1          -0.001829686    0.000621834   -0.000000000
      7        1          -0.001227019    0.001828033   -0.000000000
      8        6          -0.001211450    0.005204735   -0.000000000
      9        1           0.001829686   -0.000621834   -0.000000000
     10        1           0.001227019   -0.001828033   -0.000000000
 -------------------------------------------------------------------
 Cartesian Forces:  Max     0.009970200 RMS     0.003088306

 GradGradGradGradGradGradGradGradGradGradGradGradGradGradGradGradGradGrad
 Berny optimization.
 Using GEDIIS/GDIIS optimizer.
 FormGI is forming the generalized inverse of G from B-inverse, IUseBI=4.
 Internal  Forces:  Max     0.004579050 RMS     0.001760016
 Search for a local minimum.
 Step number   2 out of a maximum of   43
 All quantities printed in internal units (Hartrees-Bohrs-Radians)
 Mixed Optimization -- RFO/linear search
 Update second derivatives using D2CorX and points    1    2
 DE= -6.86D-03 DEPred=-6.24D-03 R= 1.10D+00
 TightC=F SS=  1.41D+00  RLast= 2.06D-01 DXNew= 5.0454D-01 6.1654D-01
 Trust test= 1.10D+00 RLast= 2.06D-01 DXMaxT set to 5.05D-01
 ITU=  1  0
 Use linear search instead of GDIIS.
     Eigenvalues ---    0.00237   0.01505   0.01505   0.02681   0.02681
     Eigenvalues ---    0.02681   0.02681   0.14995   0.16000   0.16000
     Eigenvalues ---    0.16000   0.16000   0.16405   0.19998   0.22000
     Eigenvalues ---    0.29649   0.36814   0.37230   0.37230   0.37230
     Eigenvalues ---    0.37230   0.37771   0.53930   0.54840
 RFO step:  Lambda=-3.86514720D-04 EMin= 2.36824332D-03
 Quartic linear search produced a step of  0.11241.
 Iteration  1 RMS(Cart)=  0.01516001 RMS(Int)=  0.00008580
 Iteration  2 RMS(Cart)=  0.00013122 RMS(Int)=  0.00000000
 Iteration  3 RMS(Cart)=  0.00000000 RMS(Int)=  0.00000000
 ClnCor:  largest displacement from symmetrization is 3.53D-13 for atom     8.
 Variable       Old X    -DE/DX   Delta X   Delta X   Delta X     New X
                                 (Linear)    (Quad)   (Total)
    R1        2.05356   0.00193   0.00355   0.00281   0.00636   2.05992
    R2        2.76669  -0.00250  -0.01613   0.00433  -0.01180   2.75488
    R3        2.53403   0.00057  -0.00303   0.00360   0.00057   2.53460
    R4        2.05356   0.00193   0.00355   0.00281   0.00636   2.05992
    R5        2.53403   0.00057  -0.00303   0.00360   0.00057   2.53460
    R6        2.05225   0.00084   0.00340  -0.00032   0.00308   2.05533
    R7        2.05205  -0.00005   0.00338  -0.00295   0.00042   2.05247
    R8        2.05225   0.00084   0.00340  -0.00032   0.00308   2.05533
    R9        2.05205  -0.00005   0.00338  -0.00295   0.00042   2.05247
    A1        2.03493  -0.00183  -0.00646  -0.00216  -0.00863   2.02631
    A2        2.10351  -0.00275   0.00125  -0.01617  -0.01492   2.08859
    A3        2.14474   0.00458   0.00521   0.01833   0.02354   2.16829
    A4        2.03493  -0.00183  -0.00646  -0.00216  -0.00863   2.02631
    A5        2.14474   0.00458   0.00521   0.01833   0.02354   2.16829
    A6        2.10351  -0.00275   0.00125  -0.01617  -0.01492   2.08859
    A7        2.11039   0.00087   0.00135   0.00472   0.00607   2.11646
    A8        2.11369   0.00182   0.00239   0.01026   0.01265   2.12634
    A9        2.05911  -0.00270  -0.00374  -0.01498  -0.01872   2.04039
   A10        2.11039   0.00087   0.00135   0.00472   0.00607   2.11646
   A11        2.11369   0.00182   0.00239   0.01026   0.01265   2.12634
   A12        2.05911  -0.00270  -0.00374  -0.01498  -0.01872   2.04039
    D1        3.14159   0.00000   0.00000   0.00000   0.00000   3.14159
    D2        0.00000   0.00000   0.00000   0.00000   0.00000   0.00000
    D3        0.00000   0.00000   0.00000   0.00000   0.00000   0.00000
    D4        3.14159   0.00000   0.00000   0.00000   0.00000   3.14159
    D5        3.14159  -0.00000   0.00000  -0.00000   0.00000   3.14159
    D6        0.00000  -0.00000   0.00000  -0.00000   0.00000   0.00000
    D7        0.00000  -0.00000   0.00000   0.00000   0.00000   0.00000
    D8        3.14159   0.00000   0.00000   0.00000   0.00000   3.14159
    D9        0.00000  -0.00000   0.00000  -0.00000   0.00000   0.00000
   D10        3.14159   0.00000   0.00000  -0.00000   0.00000   3.14159
   D11        3.14159  -0.00000   0.00000  -0.00000   0.00000   3.14159
   D12        0.00000  -0.00000   0.00000  -0.00000   0.00000   0.00000
         Item               Value     Threshold  Converged?
 Maximum Force            0.004579     0.000002     NO 
 RMS     Force            0.001760     0.000001     NO 
 Maximum Displacement     0.047119     0.000006     NO 
 RMS     Displacement     0.015073     0.000004     NO 
 Predicted change in Energy=-2.867775D-04
 GradGradGradGradGradGradGradGradGradGradGradGradGradGradGradGradGradGrad

                          Input orientation:                          
 ---------------------------------------------------------------------
 Center     Atomic      Atomic             Coordinates (Angstroms)
 Number     Number       Type             X           Y           Z
 ---------------------------------------------------------------------
      1          6           0        0.615122    0.391071    0.000000
      2          1           0        0.494601    1.474451    0.000000
      3          6           0       -0.615122   -0.391071    0.000000
      4          1           0       -0.494601   -1.474451    0.000000
      5          6           0       -1.846809    0.139881    0.000000
      6          1           0       -1.997130    1.217075    0.000000
      7          1           0       -2.738138   -0.480757    0.000000
      8          6           0        1.846809   -0.139881    0.000000
      9          1           0        1.997130   -1.217075    0.000000
     10          1           0        2.738138    0.480757    0.000000
 ---------------------------------------------------------------------
                    Distance matrix (angstroms):
                    1          2          3          4          5
     1  C    0.000000
     2  H    1.090064   0.000000
     3  C    1.457822   2.170636   0.000000
     4  H    2.170636   3.110394   1.090064   0.000000
     5  C    2.474712   2.695048   1.341255   2.105834   0.000000
     6  H    2.739734   2.504989   2.120396   3.082516   1.087632
     7  H    3.464742   3.778022   2.124910   2.453749   1.086121
     8  C    1.341255   2.105834   2.474712   2.695048   3.704198
     9  H    2.120396   3.082516   2.739734   2.504989   4.076420
    10  H    2.124910   2.453749   3.464742   3.778022   4.597602
                    6          7          8          9         10
     6  H    0.000000
     7  H    1.852492   0.000000
     8  C    4.076420   4.597602   0.000000
     9  H    4.677521   4.792174   1.087632   0.000000
    10  H    4.792174   5.560046   1.086121   1.852492   0.000000
 Stoichiometry    C4H6
 Framework group  C2H[SGH(C4H6)]
 Deg. of freedom     9
 Full point group                 C2H     NOp   4
 Largest Abelian subgroup         C2H     NOp   4
 Largest concise Abelian subgroup C2      NOp   2
                         Standard orientation:                         
 ---------------------------------------------------------------------
 Center     Atomic      Atomic             Coordinates (Angstroms)
 Number     Number       Type             X           Y           Z
 ---------------------------------------------------------------------
      1          6           0       -0.326614    0.651640    0.000000
      2          1           0       -1.416633    0.641708    0.000000
      3          6           0        0.326614   -0.651640    0.000000
      4          1           0        1.416633   -0.641708    0.000000
      5          6           0       -0.326614   -1.823073    0.000000
      6          1           0       -1.413503   -1.863279    0.000000
      7          1           0        0.200346   -2.772795    0.000000
      8          6           0        0.326614    1.823073    0.000000
      9          1           0        1.413503    1.863279    0.000000
     10          1           0       -0.200346    2.772795    0.000000
 ---------------------------------------------------------------------
 Rotational constants (GHZ):          42.2571395           4.4100654           3.9933129
 Standard basis: 6-31G(d) (6D, 7F)
 There are    28 symmetry adapted cartesian basis functions of AG  symmetry.
 There are     8 symmetry adapted cartesian basis functions of BG  symmetry.
 There are     8 symmetry adapted cartesian basis functions of AU  symmetry.
 There are    28 symmetry adapted cartesian basis functions of BU  symmetry.
 There are    28 symmetry adapted basis functions of AG  symmetry.
 There are     8 symmetry adapted basis functions of BG  symmetry.
 There are     8 symmetry adapted basis functions of AU  symmetry.
 There are    28 symmetry adapted basis functions of BU  symmetry.
    72 basis functions,   136 primitive gaussians,    72 cartesian basis functions
    15 alpha electrons       15 beta electrons
       nuclear repulsion energy       103.5418298011 Hartrees.
 NAtoms=   10 NActive=   10 NUniq=    5 SFac= 4.00D+00 NAtFMM=   60 NAOKFM=F Big=F
 Integral buffers will be    131072 words long.
 Raffenetti 2 integral format.
 Two-electron integral symmetry is turned on.
 One-electron integrals computed using PRISM.
 NBasis=    72 RedAO= T EigKep=  3.62D-03  NBF=    28     8     8    28
 NBsUse=    72 1.00D-06 EigRej= -1.00D+00 NBFU=    28     8     8    28
 Initial guess from the checkpoint file:  "/home/sonatak/tfm/opt+freq.chk"
 B after Tr=    -0.000000    0.000000    0.000000
         Rot=    0.999998   -0.000000   -0.000000   -0.001881 Ang=  -0.22 deg.
 Initial guess orbital symmetries:
       Occupied  (AG) (BU) (AG) (BU) (AG) (BU) (AG) (BU) (BU) (AG)
                 (AG) (BU) (AG) (AU) (BG)
       Virtual   (AU) (BG) (BU) (AG) (BU) (AG) (BU) (AG) (BU) (AG)
                 (BU) (BU) (AG) (AU) (BG) (AG) (BU) (BG) (BU) (AU)
                 (AG) (AG) (BU) (AG) (BU) (AG) (BU) (BU) (AG) (AG)
                 (BU) (AG) (AU) (BU) (BG) (AU) (BG) (AU) (AG) (AG)
                 (BU) (BU) (BG) (BU) (AG) (AG) (BU) (AU) (BG) (AG)
                 (BU) (BU) (AG) (AG) (BU) (AG) (BU)
 ExpMin= 1.61D-01 ExpMax= 3.05D+03 ExpMxC= 4.57D+02 IAcc=3 IRadAn=         5 AccDes= 0.00D+00
 Harris functional with IExCor=  402 and IRadAn=       5 diagonalized for initial guess.
 HarFok:  IExCor=  402 AccDes= 0.00D+00 IRadAn=         5 IDoV= 1 UseB2=F ITyADJ=14
 ICtDFT=  3500011 ScaDFX=  1.000000  1.000000  1.000000  1.000000
 FoFCou: FMM=F IPFlag=           0 FMFlag=      100000 FMFlg1=           0
         NFxFlg=           0 DoJE=T BraDBF=F KetDBF=T FulRan=T
         wScrn=  0.000000 ICntrl=       500 IOpCl=  0 I1Cent=   200000004 NGrid=           0
         NMat0=    1 NMatS0=      1 NMatT0=    0 NMatD0=    1 NMtDS0=    0 NMtDT0=    0
 Petite list used in FoFCou.
 Keep R1 ints in memory in symmetry-blocked form, NReq=4414629.
 Requested convergence on RMS density matrix=1.00D-08 within 128 cycles.
 Requested convergence on MAX density matrix=1.00D-06.
 Requested convergence on             energy=1.00D-06.
 No special actions if energy rises.
 Integral accuracy reduced to 1.0D-05 until final iterations.
 Initial convergence to 1.0D-05 achieved.  Increase integral accuracy.
 SCF Done:  E(RB3LYP) =  -155.992129950     A.U. after    9 cycles
            NFock=  9  Conv=0.55D-08     -V/T= 2.0103
 Calling FoFJK, ICntrl=      2127 FMM=F ISym2X=1 I1Cent= 0 IOpClX= 0 NMat=1 NMatS=1 NMatT=0.
 ***** Axes restored to original set *****
 -------------------------------------------------------------------
 Center     Atomic                   Forces (Hartrees/Bohr)
 Number     Number              X              Y              Z
 -------------------------------------------------------------------
      1        6           0.000178952   -0.000536754   -0.000000000
      2        1           0.000367826    0.000315806   -0.000000000
      3        6          -0.000178952    0.000536754   -0.000000000
      4        1          -0.000367826   -0.000315806   -0.000000000
      5        6           0.001087327   -0.000775870   -0.000000000
      6        1          -0.000528098    0.000085681   -0.000000000
      7        1           0.000108189    0.000371460   -0.000000000
      8        6          -0.001087327    0.000775870   -0.000000000
      9        1           0.000528098   -0.000085681   -0.000000000
     10        1          -0.000108189   -0.000371460   -0.000000000
 -------------------------------------------------------------------
 Cartesian Forces:  Max     0.001087327 RMS     0.000430142

 GradGradGradGradGradGradGradGradGradGradGradGradGradGradGradGradGradGrad
 Berny optimization.
 Using GEDIIS/GDIIS optimizer.
 FormGI is forming the generalized inverse of G from B-inverse, IUseBI=4.
 Internal  Forces:  Max     0.000738976 RMS     0.000317152
 Search for a local minimum.
 Step number   3 out of a maximum of   43
 All quantities printed in internal units (Hartrees-Bohrs-Radians)
 Mixed Optimization -- En-DIIS/RFO-DIIS
 Update second derivatives using D2CorX and points    1    2    3
 DE= -2.95D-04 DEPred=-2.87D-04 R= 1.03D+00
 TightC=F SS=  1.41D+00  RLast= 5.51D-02 DXNew= 8.4853D-01 1.6534D-01
 Trust test= 1.03D+00 RLast= 5.51D-02 DXMaxT set to 5.05D-01
 ITU=  1  1  0
 Use linear search instead of GDIIS.
     Eigenvalues ---    0.00237   0.01499   0.01499   0.02681   0.02681
     Eigenvalues ---    0.02681   0.02681   0.13328   0.16000   0.16000
     Eigenvalues ---    0.16000   0.16128   0.16513   0.21376   0.22000
     Eigenvalues ---    0.30014   0.36587   0.37230   0.37230   0.37230
     Eigenvalues ---    0.37251   0.38051   0.53930   0.55102
 RFO step:  Lambda=-1.33311974D-05 EMin= 2.36824332D-03
 Quartic linear search produced a step of  0.08935.
 Iteration  1 RMS(Cart)=  0.00266263 RMS(Int)=  0.00000529
 Iteration  2 RMS(Cart)=  0.00000507 RMS(Int)=  0.00000000
 Iteration  3 RMS(Cart)=  0.00000000 RMS(Int)=  0.00000000
 ClnCor:  largest displacement from symmetrization is 2.10D-13 for atom    10.
 Variable       Old X    -DE/DX   Delta X   Delta X   Delta X     New X
                                 (Linear)    (Quad)   (Total)
    R1        2.05992   0.00027   0.00057   0.00052   0.00109   2.06101
    R2        2.75488  -0.00005  -0.00105   0.00008  -0.00097   2.75391
    R3        2.53460  -0.00074   0.00005  -0.00162  -0.00157   2.53304
    R4        2.05992   0.00027   0.00057   0.00052   0.00109   2.06101
    R5        2.53460  -0.00074   0.00005  -0.00162  -0.00157   2.53304
    R6        2.05533   0.00016   0.00027   0.00038   0.00065   2.05598
    R7        2.05247  -0.00030   0.00004  -0.00080  -0.00077   2.05171
    R8        2.05533   0.00016   0.00027   0.00038   0.00065   2.05598
    R9        2.05247  -0.00030   0.00004  -0.00080  -0.00077   2.05171
    A1        2.02631   0.00034  -0.00077   0.00284   0.00206   2.02837
    A2        2.08859  -0.00048  -0.00133  -0.00225  -0.00358   2.08501
    A3        2.16829   0.00014   0.00210  -0.00058   0.00152   2.16980
    A4        2.02631   0.00034  -0.00077   0.00284   0.00206   2.02837
    A5        2.16829   0.00014   0.00210  -0.00058   0.00152   2.16980
    A6        2.08859  -0.00048  -0.00133  -0.00225  -0.00358   2.08501
    A7        2.11646   0.00053   0.00054   0.00329   0.00383   2.12029
    A8        2.12634  -0.00002   0.00113  -0.00082   0.00031   2.12665
    A9        2.04039  -0.00052  -0.00167  -0.00246  -0.00414   2.03625
   A10        2.11646   0.00053   0.00054   0.00329   0.00383   2.12029
   A11        2.12634  -0.00002   0.00113  -0.00082   0.00031   2.12665
   A12        2.04039  -0.00052  -0.00167  -0.00246  -0.00414   2.03625
    D1        3.14159  -0.00000   0.00000  -0.00000   0.00000   3.14159
    D2        0.00000   0.00000   0.00000  -0.00000   0.00000   0.00000
    D3        0.00000   0.00000   0.00000  -0.00000   0.00000   0.00000
    D4        3.14159  -0.00000   0.00000  -0.00000   0.00000   3.14159
    D5        3.14159   0.00000   0.00000   0.00000   0.00000   3.14159
    D6        0.00000   0.00000   0.00000   0.00000   0.00000   0.00000
    D7        0.00000  -0.00000   0.00000   0.00000   0.00000   0.00000
    D8        3.14159  -0.00000   0.00000   0.00000   0.00000   3.14159
    D9        0.00000   0.00000   0.00000   0.00000   0.00000   0.00000
   D10        3.14159   0.00000   0.00000   0.00000   0.00000   3.14159
   D11        3.14159   0.00000   0.00000   0.00000   0.00000   3.14159
   D12        0.00000  -0.00000   0.00000   0.00000   0.00000   0.00000
         Item               Value     Threshold  Converged?
 Maximum Force            0.000739     0.000002     NO 
 RMS     Force            0.000317     0.000001     NO 
 Maximum Displacement     0.008100     0.000006     NO 
 RMS     Displacement     0.002663     0.000004     NO 
 Predicted change in Energy=-8.611589D-06
 GradGradGradGradGradGradGradGradGradGradGradGradGradGradGradGradGradGrad

                          Input orientation:                          
 ---------------------------------------------------------------------
 Center     Atomic      Atomic             Coordinates (Angstroms)
 Number     Number       Type             X           Y           Z
 ---------------------------------------------------------------------
      1          6           0        0.615338    0.390250    0.000000
      2          1           0        0.498195    1.474581    0.000000
      3          6           0       -0.615338   -0.390250    0.000000
      4          1           0       -0.498195   -1.474581    0.000000
      5          6           0       -1.846481    0.139869    0.000000
      6          1           0       -2.001416    1.216758    0.000000
      7          1           0       -2.737413   -0.480629    0.000000
      8          6           0        1.846481   -0.139869    0.000000
      9          1           0        2.001416   -1.216758    0.000000
     10          1           0        2.737413    0.480629    0.000000
 ---------------------------------------------------------------------
                    Distance matrix (angstroms):
                    1          2          3          4          5
     1  C    0.000000
     2  H    1.090640   0.000000
     3  C    1.457307   2.171993   0.000000
     4  H    2.171993   3.112933   1.090640   0.000000
     5  C    2.474518   2.697955   1.340425   2.103408   0.000000
     6  H    2.744179   2.512873   2.122189   3.082690   1.087977
     7  H    3.464010   3.780477   2.123999   2.449906   1.085716
     8  C    1.340425   2.103408   2.474518   2.697955   3.703541
     9  H    2.122189   3.082690   2.744179   2.512873   4.080043
    10  H    2.123999   2.449906   3.464010   3.780477   4.596542
                    6          7          8          9         10
     6  H    0.000000
     7  H    1.850085   0.000000
     8  C    4.080043   4.596542   0.000000
     9  H    4.684514   4.795663   1.087977   0.000000
    10  H    4.795663   5.558573   1.085716   1.850085   0.000000
 Stoichiometry    C4H6
 Framework group  C2H[SGH(C4H6)]
 Deg. of freedom     9
 Full point group                 C2H     NOp   4
 Largest Abelian subgroup         C2H     NOp   4
 Largest concise Abelian subgroup C2      NOp   2
                         Standard orientation:                         
 ---------------------------------------------------------------------
 Center     Atomic      Atomic             Coordinates (Angstroms)
 Number     Number       Type             X           Y           Z
 ---------------------------------------------------------------------
      1          6           0       -0.325985    0.651667    0.000000
      2          1           0       -1.416604    0.644842    0.000000
      3          6           0        0.325985   -0.651667    0.000000
      4          1           0        1.416604   -0.644842    0.000000
      5          6           0       -0.325985   -1.822852    0.000000
      6          1           0       -1.413024   -1.868029    0.000000
      7          1           0        0.201181   -2.771996    0.000000
      8          6           0        0.325985    1.822852    0.000000
      9          1           0        1.413024    1.868029    0.000000
     10          1           0       -0.201181    2.771996    0.000000
 ---------------------------------------------------------------------
 Rotational constants (GHZ):          42.3161931           4.4096360           3.9934874
 Standard basis: 6-31G(d) (6D, 7F)
 There are    28 symmetry adapted cartesian basis functions of AG  symmetry.
 There are     8 symmetry adapted cartesian basis functions of BG  symmetry.
 There are     8 symmetry adapted cartesian basis functions of AU  symmetry.
 There are    28 symmetry adapted cartesian basis functions of BU  symmetry.
 There are    28 symmetry adapted basis functions of AG  symmetry.
 There are     8 symmetry adapted basis functions of BG  symmetry.
 There are     8 symmetry adapted basis functions of AU  symmetry.
 There are    28 symmetry adapted basis functions of BU  symmetry.
    72 basis functions,   136 primitive gaussians,    72 cartesian basis functions
    15 alpha electrons       15 beta electrons
       nuclear repulsion energy       103.5562840337 Hartrees.
 NAtoms=   10 NActive=   10 NUniq=    5 SFac= 4.00D+00 NAtFMM=   60 NAOKFM=F Big=F
 Integral buffers will be    131072 words long.
 Raffenetti 2 integral format.
 Two-electron integral symmetry is turned on.
 One-electron integrals computed using PRISM.
 NBasis=    72 RedAO= T EigKep=  3.62D-03  NBF=    28     8     8    28
 NBsUse=    72 1.00D-06 EigRej= -1.00D+00 NBFU=    28     8     8    28
 Initial guess from the checkpoint file:  "/home/sonatak/tfm/opt+freq.chk"
 B after Tr=    -0.000000   -0.000000    0.000000
         Rot=    1.000000   -0.000000   -0.000000   -0.000121 Ang=  -0.01 deg.
 Initial guess orbital symmetries:
       Occupied  (AG) (BU) (AG) (BU) (AG) (BU) (AG) (BU) (BU) (AG)
                 (AG) (BU) (AG) (AU) (BG)
       Virtual   (AU) (BG) (BU) (AG) (BU) (AG) (BU) (AG) (BU) (AG)
                 (BU) (BU) (AG) (AU) (BG) (AG) (BU) (BG) (BU) (AU)
                 (AG) (AG) (BU) (AG) (BU) (AG) (BU) (BU) (AG) (AG)
                 (BU) (AG) (AU) (BU) (BG) (AU) (BG) (AU) (AG) (AG)
                 (BU) (BU) (BG) (BU) (AG) (AG) (BU) (AU) (BG) (AG)
                 (BU) (BU) (AG) (AG) (BU) (AG) (BU)
 Keep R1 ints in memory in symmetry-blocked form, NReq=4414629.
 Requested convergence on RMS density matrix=1.00D-08 within 128 cycles.
 Requested convergence on MAX density matrix=1.00D-06.
 Requested convergence on             energy=1.00D-06.
 No special actions if energy rises.
 SCF Done:  E(RB3LYP) =  -155.992139190     A.U. after    7 cycles
            NFock=  7  Conv=0.69D-08     -V/T= 2.0103
 Calling FoFJK, ICntrl=      2127 FMM=F ISym2X=1 I1Cent= 0 IOpClX= 0 NMat=1 NMatS=1 NMatT=0.
 ***** Axes restored to original set *****
 -------------------------------------------------------------------
 Center     Atomic                   Forces (Hartrees/Bohr)
 Number     Number              X              Y              Z
 -------------------------------------------------------------------
      1        6          -0.000098721    0.000342706   -0.000000000
      2        1           0.000058365   -0.000087891   -0.000000000
      3        6           0.000098721   -0.000342706   -0.000000000
      4        1          -0.000058365    0.000087891   -0.000000000
      5        6           0.000024609    0.000166741   -0.000000000
      6        1          -0.000100784   -0.000046771   -0.000000000
      7        1          -0.000047366    0.000000270   -0.000000000
      8        6          -0.000024609   -0.000166741   -0.000000000
      9        1           0.000100784    0.000046771   -0.000000000
     10        1           0.000047366   -0.000000270   -0.000000000
 -------------------------------------------------------------------
 Cartesian Forces:  Max     0.000342706 RMS     0.000109946

 GradGradGradGradGradGradGradGradGradGradGradGradGradGradGradGradGradGrad
 Berny optimization.
 Using GEDIIS/GDIIS optimizer.
 FormGI is forming the generalized inverse of G from B-inverse, IUseBI=4.
 Internal  Forces:  Max     0.000161111 RMS     0.000069403
 Search for a local minimum.
 Step number   4 out of a maximum of   43
 All quantities printed in internal units (Hartrees-Bohrs-Radians)
 Mixed Optimization -- En-DIIS/RFO-DIIS
 Swapping is turned off.
 Update second derivatives using D2CorX and points    1    2    3    4
 DE= -9.24D-06 DEPred=-8.61D-06 R= 1.07D+00
 TightC=F SS=  1.41D+00  RLast= 1.06D-02 DXNew= 8.4853D-01 3.1868D-02
 Trust test= 1.07D+00 RLast= 1.06D-02 DXMaxT set to 5.05D-01
 ITU=  1  1  1  0
     Eigenvalues ---    0.00237   0.01496   0.01496   0.02681   0.02681
     Eigenvalues ---    0.02681   0.02681   0.11333   0.16000   0.16000
     Eigenvalues ---    0.16000   0.16154   0.16290   0.21589   0.22000
     Eigenvalues ---    0.29573   0.37194   0.37230   0.37230   0.37230
     Eigenvalues ---    0.37367   0.38125   0.53930   0.59031
 En-DIIS/RFO-DIIS/Sim-DIIS IScMMF=       -3 using points:     4    3
 RFO step:  Lambda=-6.80986408D-07.
 DidBck=F Rises=F RFO-DIIS coefs:    1.14144   -0.14144
 Iteration  1 RMS(Cart)=  0.00061021 RMS(Int)=  0.00000020
 Iteration  2 RMS(Cart)=  0.00000019 RMS(Int)=  0.00000000
 ClnCor:  largest displacement from symmetrization is 4.10D-13 for atom    10.
 Variable       Old X    -DE/DX   Delta X   Delta X   Delta X     New X
                                 (Linear)    (Quad)   (Total)
    R1        2.06101  -0.00009   0.00015  -0.00037  -0.00022   2.06080
    R2        2.75391   0.00014  -0.00014   0.00055   0.00042   2.75433
    R3        2.53304   0.00016  -0.00022   0.00048   0.00025   2.53329
    R4        2.06101  -0.00009   0.00015  -0.00037  -0.00022   2.06080
    R5        2.53304   0.00016  -0.00022   0.00048   0.00025   2.53329
    R6        2.05598  -0.00003   0.00009  -0.00015  -0.00005   2.05593
    R7        2.05171   0.00004  -0.00011   0.00021   0.00010   2.05181
    R8        2.05598  -0.00003   0.00009  -0.00015  -0.00005   2.05593
    R9        2.05171   0.00004  -0.00011   0.00021   0.00010   2.05181
    A1        2.02837   0.00006   0.00029   0.00014   0.00043   2.02881
    A2        2.08501  -0.00004  -0.00051   0.00014  -0.00037   2.08464
    A3        2.16980  -0.00003   0.00021  -0.00028  -0.00006   2.16974
    A4        2.02837   0.00006   0.00029   0.00014   0.00043   2.02881
    A5        2.16980  -0.00003   0.00021  -0.00028  -0.00006   2.16974
    A6        2.08501  -0.00004  -0.00051   0.00014  -0.00037   2.08464
    A7        2.12029   0.00013   0.00054   0.00043   0.00097   2.12126
    A8        2.12665  -0.00004   0.00004  -0.00025  -0.00021   2.12644
    A9        2.03625  -0.00009  -0.00059  -0.00018  -0.00076   2.03549
   A10        2.12029   0.00013   0.00054   0.00043   0.00097   2.12126
   A11        2.12665  -0.00004   0.00004  -0.00025  -0.00021   2.12644
   A12        2.03625  -0.00009  -0.00059  -0.00018  -0.00076   2.03549
    D1        3.14159   0.00000   0.00000  -0.00000   0.00000   3.14159
    D2        0.00000   0.00000   0.00000  -0.00000   0.00000   0.00000
    D3        0.00000   0.00000   0.00000  -0.00000   0.00000   0.00000
    D4        3.14159   0.00000   0.00000  -0.00000   0.00000   3.14159
    D5        3.14159  -0.00000   0.00000   0.00000   0.00000   3.14159
    D6        0.00000  -0.00000   0.00000   0.00000   0.00000   0.00000
    D7        0.00000  -0.00000   0.00000  -0.00000   0.00000   0.00000
    D8        3.14159  -0.00000   0.00000   0.00000   0.00000   3.14159
    D9        0.00000  -0.00000   0.00000  -0.00000   0.00000   0.00000
   D10        3.14159   0.00000   0.00000  -0.00000   0.00000   3.14159
   D11        3.14159  -0.00000   0.00000   0.00000   0.00000   3.14159
   D12        0.00000   0.00000   0.00000   0.00000   0.00000   0.00000
         Item               Value     Threshold  Converged?
 Maximum Force            0.000161     0.000002     NO 
 RMS     Force            0.000069     0.000001     NO 
 Maximum Displacement     0.002090     0.000006     NO 
 RMS     Displacement     0.000610     0.000004     NO 
 Predicted change in Energy=-3.404943D-07
 GradGradGradGradGradGradGradGradGradGradGradGradGradGradGradGradGradGrad

                          Input orientation:                          
 ---------------------------------------------------------------------
 Center     Atomic      Atomic             Coordinates (Angstroms)
 Number     Number       Type             X           Y           Z
 ---------------------------------------------------------------------
      1          6           0        0.615447    0.390284    0.000000
      2          1           0        0.498830    1.474557    0.000000
      3          6           0       -0.615447   -0.390284    0.000000
      4          1           0       -0.498830   -1.474557    0.000000
      5          6           0       -1.846657    0.140020    0.000000
      6          1           0       -2.002522    1.216746    0.000000
      7          1           0       -2.737570   -0.480603    0.000000
      8          6           0        1.846657   -0.140020    0.000000
      9          1           0        2.002522   -1.216746    0.000000
     10          1           0        2.737570    0.480603    0.000000
 ---------------------------------------------------------------------
                    Distance matrix (angstroms):
                    1          2          3          4          5
     1  C    0.000000
     2  H    1.090526   0.000000
     3  C    1.457527   2.172382   0.000000
     4  H    2.172382   3.113294   1.090526   0.000000
     5  C    2.474791   2.698574   1.340560   2.103211   0.000000
     6  H    2.745324   2.514604   2.122857   3.082888   1.087949
     7  H    3.464270   3.781129   2.124044   2.449469   1.085771
     8  C    1.340560   2.103211   2.474791   2.698574   3.703916
     9  H    2.122857   3.082888   2.745324   2.514604   4.081298
    10  H    2.124044   2.449469   3.464270   3.781129   4.596862
                    6          7          8          9         10
     6  H    0.000000
     7  H    1.849672   0.000000
     8  C    4.081298   4.596862   0.000000
     9  H    4.686391   4.796914   1.087949   0.000000
    10  H    4.796914   5.558873   1.085771   1.849672   0.000000
 Stoichiometry    C4H6
 Framework group  C2H[SGH(C4H6)]
 Deg. of freedom     9
 Full point group                 C2H     NOp   4
 Largest Abelian subgroup         C2H     NOp   4
 Largest concise Abelian subgroup C2      NOp   2
                         Standard orientation:                         
 ---------------------------------------------------------------------
 Center     Atomic      Atomic             Coordinates (Angstroms)
 Number     Number       Type             X           Y           Z
 ---------------------------------------------------------------------
      1          6           0       -0.326046    0.651760    0.000000
      2          1           0       -1.416554    0.645388    0.000000
      3          6           0        0.326046   -0.651760    0.000000
      4          1           0        1.416554   -0.645388    0.000000
      5          6           0       -0.326046   -1.823031    0.000000
      6          1           0       -1.413014   -1.869213    0.000000
      7          1           0        0.201302   -2.772137    0.000000
      8          6           0        0.326046    1.823031    0.000000
      9          1           0        1.413014    1.869213    0.000000
     10          1           0       -0.201302    2.772137    0.000000
 ---------------------------------------------------------------------
 Rotational constants (GHZ):          42.3118195           4.4084448           3.9924714
 Standard basis: 6-31G(d) (6D, 7F)
 There are    28 symmetry adapted cartesian basis functions of AG  symmetry.
 There are     8 symmetry adapted cartesian basis functions of BG  symmetry.
 There are     8 symmetry adapted cartesian basis functions of AU  symmetry.
 There are    28 symmetry adapted cartesian basis functions of BU  symmetry.
 There are    28 symmetry adapted basis functions of AG  symmetry.
 There are     8 symmetry adapted basis functions of BG  symmetry.
 There are     8 symmetry adapted basis functions of AU  symmetry.
 There are    28 symmetry adapted basis functions of BU  symmetry.
    72 basis functions,   136 primitive gaussians,    72 cartesian basis functions
    15 alpha electrons       15 beta electrons
       nuclear repulsion energy       103.5459489485 Hartrees.
 NAtoms=   10 NActive=   10 NUniq=    5 SFac= 4.00D+00 NAtFMM=   60 NAOKFM=F Big=F
 Integral buffers will be    131072 words long.
 Raffenetti 2 integral format.
 Two-electron integral symmetry is turned on.
 One-electron integrals computed using PRISM.
 NBasis=    72 RedAO= T EigKep=  3.63D-03  NBF=    28     8     8    28
 NBsUse=    72 1.00D-06 EigRej= -1.00D+00 NBFU=    28     8     8    28
 Initial guess from the checkpoint file:  "/home/sonatak/tfm/opt+freq.chk"
 B after Tr=    -0.000000   -0.000000    0.000000
         Rot=    1.000000   -0.000000   -0.000000   -0.000012 Ang=  -0.00 deg.
 Initial guess orbital symmetries:
       Occupied  (AG) (BU) (AG) (BU) (AG) (BU) (AG) (BU) (BU) (AG)
                 (AG) (BU) (AG) (AU) (BG)
       Virtual   (AU) (BG) (BU) (AG) (BU) (AG) (BU) (AG) (BU) (AG)
                 (BU) (BU) (AG) (AU) (BG) (AG) (BU) (BG) (BU) (AU)
                 (AG) (AG) (BU) (AG) (BU) (AG) (BU) (BU) (AG) (AG)
                 (BU) (AG) (AU) (BU) (BG) (AU) (BG) (AU) (AG) (AG)
                 (BU) (BU) (BG) (BU) (AG) (AG) (BU) (AU) (BG) (AG)
                 (BU) (BU) (AG) (AG) (BU) (AG) (BU)
 Keep R1 ints in memory in symmetry-blocked form, NReq=4414629.
 Requested convergence on RMS density matrix=1.00D-08 within 128 cycles.
 Requested convergence on MAX density matrix=1.00D-06.
 Requested convergence on             energy=1.00D-06.
 No special actions if energy rises.
 SCF Done:  E(RB3LYP) =  -155.992139555     A.U. after    6 cycles
            NFock=  6  Conv=0.69D-08     -V/T= 2.0103
 Calling FoFJK, ICntrl=      2127 FMM=F ISym2X=1 I1Cent= 0 IOpClX= 0 NMat=1 NMatS=1 NMatT=0.
 ***** Axes restored to original set *****
 -------------------------------------------------------------------
 Center     Atomic                   Forces (Hartrees/Bohr)
 Number     Number              X              Y              Z
 -------------------------------------------------------------------
      1        6          -0.000024927    0.000052420   -0.000000000
      2        1           0.000004882   -0.000032577   -0.000000000
      3        6           0.000024927   -0.000052420   -0.000000000
      4        1          -0.000004882    0.000032577   -0.000000000
      5        6           0.000035419    0.000045734   -0.000000000
      6        1          -0.000006656   -0.000017510   -0.000000000
      7        1          -0.000011715   -0.000012527   -0.000000000
      8        6          -0.000035419   -0.000045734   -0.000000000
      9        1           0.000006656    0.000017510   -0.000000000
     10        1           0.000011715    0.000012527   -0.000000000
 -------------------------------------------------------------------
 Cartesian Forces:  Max     0.000052420 RMS     0.000023728

 GradGradGradGradGradGradGradGradGradGradGradGradGradGradGradGradGradGrad
 Berny optimization.
 Using GEDIIS/GDIIS optimizer.
 FormGI is forming the generalized inverse of G from B-inverse, IUseBI=4.
 Internal  Forces:  Max     0.000032944 RMS     0.000013729
 Search for a local minimum.
 Step number   5 out of a maximum of   43
 All quantities printed in internal units (Hartrees-Bohrs-Radians)
 Mixed Optimization -- En-DIIS/RFO-DIIS
 Swapping is turned off.
 Update second derivatives using D2CorX and points    1    2    3    4    5
 DE= -3.65D-07 DEPred=-3.40D-07 R= 1.07D+00
 Trust test= 1.07D+00 RLast= 2.05D-03 DXMaxT set to 5.05D-01
 ITU=  0  1  1  1  0
     Eigenvalues ---    0.00237   0.01495   0.01495   0.02681   0.02681
     Eigenvalues ---    0.02681   0.02681   0.10776   0.15715   0.16000
     Eigenvalues ---    0.16000   0.16000   0.16467   0.20379   0.22000
     Eigenvalues ---    0.31324   0.36371   0.37230   0.37230   0.37230
     Eigenvalues ---    0.37297   0.38657   0.53930   0.60903
 En-DIIS/RFO-DIIS/Sim-DIIS IScMMF=       -3 using points:     5    4    3
 RFO step:  Lambda=-1.98319389D-08.
 DidBck=F Rises=F RFO-DIIS coefs:    1.14393   -0.15408    0.01014
 Iteration  1 RMS(Cart)=  0.00005459 RMS(Int)=  0.00000000
 Iteration  2 RMS(Cart)=  0.00000000 RMS(Int)=  0.00000000
 ClnCor:  largest displacement from symmetrization is 3.99D-13 for atom     9.
 Variable       Old X    -DE/DX   Delta X   Delta X   Delta X     New X
                                 (Linear)    (Quad)   (Total)
    R1        2.06080  -0.00003  -0.00004  -0.00006  -0.00010   2.06069
    R2        2.75433  -0.00003   0.00007  -0.00016  -0.00009   2.75424
    R3        2.53329  -0.00001   0.00005  -0.00006  -0.00001   2.53328
    R4        2.06080  -0.00003  -0.00004  -0.00006  -0.00010   2.06069
    R5        2.53329  -0.00001   0.00005  -0.00006  -0.00001   2.53328
    R6        2.05593  -0.00002  -0.00001  -0.00004  -0.00005   2.05587
    R7        2.05181   0.00002   0.00002   0.00002   0.00005   2.05186
    R8        2.05593  -0.00002  -0.00001  -0.00004  -0.00005   2.05587
    R9        2.05181   0.00002   0.00002   0.00002   0.00005   2.05186
    A1        2.02881   0.00001   0.00004   0.00003   0.00007   2.02888
    A2        2.08464   0.00001  -0.00002   0.00004   0.00002   2.08466
    A3        2.16974  -0.00002  -0.00002  -0.00007  -0.00010   2.16964
    A4        2.02881   0.00001   0.00004   0.00003   0.00007   2.02888
    A5        2.16974  -0.00002  -0.00002  -0.00007  -0.00010   2.16964
    A6        2.08464   0.00001  -0.00002   0.00004   0.00002   2.08466
    A7        2.12126   0.00001   0.00010   0.00003   0.00013   2.12139
    A8        2.12644  -0.00001  -0.00003  -0.00004  -0.00008   2.12636
    A9        2.03549  -0.00000  -0.00007   0.00001  -0.00005   2.03543
   A10        2.12126   0.00001   0.00010   0.00003   0.00013   2.12139
   A11        2.12644  -0.00001  -0.00003  -0.00004  -0.00008   2.12636
   A12        2.03549  -0.00000  -0.00007   0.00001  -0.00005   2.03543
    D1        3.14159  -0.00000   0.00000   0.00000   0.00000   3.14159
    D2        0.00000   0.00000   0.00000   0.00000   0.00000   0.00000
    D3        0.00000  -0.00000   0.00000   0.00000   0.00000   0.00000
    D4        3.14159  -0.00000   0.00000   0.00000   0.00000   3.14159
    D5        3.14159   0.00000   0.00000  -0.00000   0.00000   3.14159
    D6        0.00000   0.00000   0.00000  -0.00000   0.00000   0.00000
    D7        0.00000  -0.00000   0.00000  -0.00000   0.00000   0.00000
    D8        3.14159   0.00000   0.00000   0.00000   0.00000   3.14159
    D9        0.00000  -0.00000   0.00000  -0.00000   0.00000   0.00000
   D10        3.14159  -0.00000   0.00000   0.00000   0.00000   3.14159
   D11        3.14159  -0.00000   0.00000  -0.00000   0.00000   3.14159
   D12        0.00000   0.00000   0.00000  -0.00000   0.00000   0.00000
         Item               Value     Threshold  Converged?
 Maximum Force            0.000033     0.000002     NO 
 RMS     Force            0.000014     0.000001     NO 
 Maximum Displacement     0.000129     0.000006     NO 
 RMS     Displacement     0.000055     0.000004     NO 
 Predicted change in Energy=-1.209277D-08
 GradGradGradGradGradGradGradGradGradGradGradGradGradGradGradGradGradGrad

                          Input orientation:                          
 ---------------------------------------------------------------------
 Center     Atomic      Atomic             Coordinates (Angstroms)
 Number     Number       Type             X           Y           Z
 ---------------------------------------------------------------------
      1          6           0        0.615408    0.390301    0.000000
      2          1           0        0.498825    1.474523    0.000000
      3          6           0       -0.615408   -0.390301    0.000000
      4          1           0       -0.498825   -1.474523    0.000000
      5          6           0       -1.846589    0.140058    0.000000
      6          1           0       -2.002540    1.216743    0.000000
      7          1           0       -2.737504   -0.480606    0.000000
      8          6           0        1.846589   -0.140058    0.000000
      9          1           0        2.002540   -1.216743    0.000000
     10          1           0        2.737504    0.480606    0.000000
 ---------------------------------------------------------------------
                    Distance matrix (angstroms):
                    1          2          3          4          5
     1  C    0.000000
     2  H    1.090472   0.000000
     3  C    1.457480   2.172345   0.000000
     4  H    2.172345   3.113227   1.090472   0.000000
     5  C    2.474682   2.698475   1.340555   2.103173   0.000000
     6  H    2.745297   2.514613   2.122905   3.082868   1.087921
     7  H    3.464173   3.781052   2.124016   2.449399   1.085796
     8  C    1.340555   2.103173   2.474682   2.698475   3.703786
     9  H    2.122905   3.082868   2.745297   2.514613   4.081262
    10  H    2.124016   2.449399   3.464173   3.781052   4.596725
                    6          7          8          9         10
     6  H    0.000000
     7  H    1.849640   0.000000
     8  C    4.081262   4.596725   0.000000
     9  H    4.686419   4.796865   1.087921   0.000000
    10  H    4.796865   5.558744   1.085796   1.849640   0.000000
 Stoichiometry    C4H6
 Framework group  C2H[SGH(C4H6)]
 Deg. of freedom     9
 Full point group                 C2H     NOp   4
 Largest Abelian subgroup         C2H     NOp   4
 Largest concise Abelian subgroup C2      NOp   2
                         Standard orientation:                         
 ---------------------------------------------------------------------
 Center     Atomic      Atomic             Coordinates (Angstroms)
 Number     Number       Type             X           Y           Z
 ---------------------------------------------------------------------
      1          6           0       -0.326069    0.651721    0.000000
      2          1           0       -1.416523    0.645374    0.000000
      3          6           0        0.326069   -0.651721    0.000000
      4          1           0        1.416523   -0.645374    0.000000
      5          6           0       -0.326069   -1.822961    0.000000
      6          1           0       -1.413006   -1.869236    0.000000
      7          1           0        0.201322   -2.772071    0.000000
      8          6           0        0.326069    1.822961    0.000000
      9          1           0        1.413006    1.869236    0.000000
     10          1           0       -0.201322    2.772071    0.000000
 ---------------------------------------------------------------------
 Rotational constants (GHZ):          42.3106480           4.4087433           3.9927058
 Standard basis: 6-31G(d) (6D, 7F)
 There are    28 symmetry adapted cartesian basis functions of AG  symmetry.
 There are     8 symmetry adapted cartesian basis functions of BG  symmetry.
 There are     8 symmetry adapted cartesian basis functions of AU  symmetry.
 There are    28 symmetry adapted cartesian basis functions of BU  symmetry.
 There are    28 symmetry adapted basis functions of AG  symmetry.
 There are     8 symmetry adapted basis functions of BG  symmetry.
 There are     8 symmetry adapted basis functions of AU  symmetry.
 There are    28 symmetry adapted basis functions of BU  symmetry.
    72 basis functions,   136 primitive gaussians,    72 cartesian basis functions
    15 alpha electrons       15 beta electrons
       nuclear repulsion energy       103.5479680930 Hartrees.
 NAtoms=   10 NActive=   10 NUniq=    5 SFac= 4.00D+00 NAtFMM=   60 NAOKFM=F Big=F
 Integral buffers will be    131072 words long.
 Raffenetti 2 integral format.
 Two-electron integral symmetry is turned on.
 One-electron integrals computed using PRISM.
 NBasis=    72 RedAO= T EigKep=  3.63D-03  NBF=    28     8     8    28
 NBsUse=    72 1.00D-06 EigRej= -1.00D+00 NBFU=    28     8     8    28
 Initial guess from the checkpoint file:  "/home/sonatak/tfm/opt+freq.chk"
 B after Tr=     0.000000    0.000000    0.000000
         Rot=    1.000000    0.000000    0.000000    0.000001 Ang=   0.00 deg.
 Initial guess orbital symmetries:
       Occupied  (AG) (BU) (AG) (BU) (AG) (BU) (AG) (BU) (BU) (AG)
                 (AG) (BU) (AG) (AU) (BG)
       Virtual   (AU) (BG) (BU) (AG) (BU) (AG) (BU) (AG) (BU) (AG)
                 (BU) (BU) (AG) (AU) (BG) (AG) (BU) (BG) (BU) (AU)
                 (AG) (AG) (BU) (AG) (BU) (AG) (BU) (BU) (AG) (AG)
                 (BU) (AG) (AU) (BU) (BG) (AU) (BG) (AU) (AG) (AG)
                 (BU) (BU) (BG) (BU) (AG) (AG) (BU) (AU) (BG) (AG)
                 (BU) (BU) (AG) (AG) (BU) (AG) (BU)
 Keep R1 ints in memory in symmetry-blocked form, NReq=4414629.
 Requested convergence on RMS density matrix=1.00D-08 within 128 cycles.
 Requested convergence on MAX density matrix=1.00D-06.
 Requested convergence on             energy=1.00D-06.
 No special actions if energy rises.
 SCF Done:  E(RB3LYP) =  -155.992139567     A.U. after    6 cycles
            NFock=  6  Conv=0.96D-09     -V/T= 2.0103
 Calling FoFJK, ICntrl=      2127 FMM=F ISym2X=1 I1Cent= 0 IOpClX= 0 NMat=1 NMatS=1 NMatT=0.
 ***** Axes restored to original set *****
 -------------------------------------------------------------------
 Center     Atomic                   Forces (Hartrees/Bohr)
 Number     Number              X              Y              Z
 -------------------------------------------------------------------
      1        6           0.000004641    0.000004799   -0.000000000
      2        1          -0.000000424    0.000000306   -0.000000000
      3        6          -0.000004641   -0.000004799   -0.000000000
      4        1           0.000000424   -0.000000306   -0.000000000
      5        6          -0.000001816    0.000001999   -0.000000000
      6        1           0.000001142    0.000000478   -0.000000000
[...]
 ! R3    R(1,8)                 -0.0622                  2.3                    !
 ! R4    R(3,4)                 -0.2411                  8.8                    !
 ! R5    R(3,5)                  0.0622                  2.3                    !
 ! R6    R(5,6)                 -0.5892                 21.6                    !
 ! R7    R(5,7)                 -0.3899                 14.3                    !
 ! R8    R(8,9)                  0.5892                 21.6                    !
 ! R9    R(8,10)                 0.3899                 14.3                    !
 --------------------------------------------------------------------------------
                           ----------------------------
                           ! Normal Mode    22        !
 --------------------------                            --------------------------
 ! Name  Definition              Value          Relative Weight (%)             !
 --------------------------------------------------------------------------------
 ! R1    R(1,2)                 -0.2426                  8.7                    !
 ! R3    R(1,8)                  0.0598                  2.1                    !
 ! R4    R(3,4)                 -0.2426                  8.7                    !
 ! R5    R(3,5)                  0.0598                  2.1                    !
 ! R6    R(5,6)                 -0.5862                 20.9                    !
 ! R7    R(5,7)                 -0.3927                 14.0                    !
 ! R8    R(8,9)                 -0.5862                 20.9                    !
 ! R9    R(8,10)                -0.3927                 14.0                    !
 --------------------------------------------------------------------------------
                           ----------------------------
                           ! Normal Mode    23        !
 --------------------------                            --------------------------
 ! Name  Definition              Value          Relative Weight (%)             !
 --------------------------------------------------------------------------------
 ! R1    R(1,2)                 -0.0727                  2.7                    !
 ! R4    R(3,4)                 -0.0727                  2.7                    !
 ! R6    R(5,6)                  0.4644                 17.5                    !
 ! R7    R(5,7)                 -0.6313                 23.9                    !
 ! R8    R(8,9)                  0.4644                 17.5                    !
 ! R9    R(8,10)                -0.6313                 23.9                    !
 ! A7    A(3,5,6)               -0.0437                  1.6                    !
 ! A8    A(3,5,7)                0.0382                  1.4                    !
 ! A10   A(1,8,9)               -0.0437                  1.6                    !
 ! A11   A(1,8,10)               0.0382                  1.4                    !
 --------------------------------------------------------------------------------
                           ----------------------------
                           ! Normal Mode    24        !
 --------------------------                            --------------------------
 ! Name  Definition              Value          Relative Weight (%)             !
 --------------------------------------------------------------------------------
 ! R1    R(1,2)                  0.0944                  3.5                    !
 ! R4    R(3,4)                 -0.0944                  3.5                    !
 ! R6    R(5,6)                  0.4653                 17.4                    !
 ! R7    R(5,7)                 -0.6276                 23.5                    !
 ! R8    R(8,9)                 -0.4653                 17.4                    !
 ! R9    R(8,10)                 0.6276                 23.5                    !
 ! A7    A(3,5,6)               -0.0427                  1.6                    !
 ! A8    A(3,5,7)                0.0379                  1.4                    !
 ! A10   A(1,8,9)                0.0427                  1.6                    !
 ! A11   A(1,8,10)              -0.0379                  1.4                    !
 --------------------------------------------------------------------------------
 Max01P=     15 Av01P=   11.54 Stan. Dev.=    1.93
 Max05P=     11 Av05P=    7.13 Stan. Dev.=    2.01
 Max10P=      6 Av10P=    3.83 Stan. Dev.=    1.55
 MaxNDP=     25 AvNDP=   19.04 Stan. Dev.=    5.79
 ***** Axes restored to original set *****
 -------------------------------------------------------------------
 Center     Atomic                   Forces (Hartrees/Bohr)
 Number     Number              X              Y              Z
 -------------------------------------------------------------------
      1        6          -0.000000167   -0.000000522   -0.000000000
      2        1          -0.000000308    0.000000189   -0.000000000
      3        6           0.000000167    0.000000522   -0.000000000
      4        1           0.000000308   -0.000000189   -0.000000000
      5        6           0.000000158   -0.000000265   -0.000000000
      6        1          -0.000000152    0.000000051   -0.000000000
      7        1           0.000000053   -0.000000030   -0.000000000
      8        6          -0.000000158    0.000000265   -0.000000000
      9        1           0.000000152   -0.000000051   -0.000000000
     10        1          -0.000000053    0.000000030   -0.000000000
 -------------------------------------------------------------------
 Cartesian Forces:  Max     0.000000522 RMS     0.000000192
 FormGI is forming the generalized inverse of G from B-inverse, IUseBI=4.

 GradGradGradGradGradGradGradGradGradGradGradGradGradGradGradGradGradGrad
 Berny optimization.
 Internal  Forces:  Max     0.000000658 RMS     0.000000157
 Search for a local minimum.
 Step number   1 out of a maximum of    2
 All quantities printed in internal units (Hartrees-Bohrs-Radians)
 Second derivative matrix not updated -- analytic derivatives used.
 ITU=  0
     Eigenvalues ---    0.00786   0.02356   0.02407   0.02959   0.03225
     Eigenvalues ---    0.03855   0.04047   0.10718   0.10912   0.11229
     Eigenvalues ---    0.11379   0.11868   0.13794   0.15663   0.18872
     Eigenvalues ---    0.34721   0.35168   0.35638   0.36036   0.36123
     Eigenvalues ---    0.36608   0.36649   0.61640   0.62655
 Angle between quadratic step and forces=  28.21 degrees.
 Linear search not attempted -- first point.
 Iteration  1 RMS(Cart)=  0.00000109 RMS(Int)=  0.00000000
 Iteration  2 RMS(Cart)=  0.00000000 RMS(Int)=  0.00000000
 ClnCor:  largest displacement from symmetrization is 1.21D-13 for atom     4.
 Variable       Old X    -DE/DX   Delta X   Delta X   Delta X     New X
                                 (Linear)    (Quad)   (Total)
    R1        2.06069   0.00000   0.00000   0.00000   0.00000   2.06069
    R2        2.75426  -0.00000   0.00000  -0.00000  -0.00000   2.75426
    R3        2.53329  -0.00000   0.00000  -0.00000  -0.00000   2.53328
    R4        2.06069   0.00000   0.00000   0.00000   0.00000   2.06069
    R5        2.53329  -0.00000   0.00000  -0.00000  -0.00000   2.53328
    R6        2.05587   0.00000   0.00000   0.00000   0.00000   2.05587
    R7        2.05186  -0.00000   0.00000  -0.00000  -0.00000   2.05186
    R8        2.05587   0.00000   0.00000   0.00000   0.00000   2.05587
    R9        2.05186  -0.00000   0.00000  -0.00000  -0.00000   2.05186
    A1        2.02888  -0.00000   0.00000  -0.00000  -0.00000   2.02888
    A2        2.08467   0.00000   0.00000   0.00000   0.00000   2.08467
    A3        2.16964  -0.00000   0.00000  -0.00000  -0.00000   2.16964
    A4        2.02888  -0.00000   0.00000  -0.00000  -0.00000   2.02888
    A5        2.16964  -0.00000   0.00000  -0.00000  -0.00000   2.16964
    A6        2.08467   0.00000   0.00000   0.00000   0.00000   2.08467
    A7        2.12138   0.00000   0.00000   0.00000   0.00000   2.12138
    A8        2.12636   0.00000   0.00000   0.00000   0.00000   2.12636
    A9        2.03545  -0.00000   0.00000  -0.00000  -0.00000   2.03544
   A10        2.12138   0.00000   0.00000   0.00000   0.00000   2.12138
   A11        2.12636   0.00000   0.00000   0.00000   0.00000   2.12636
   A12        2.03545  -0.00000   0.00000  -0.00000  -0.00000   2.03544
    D1        3.14159   0.00000   0.00000  -0.00000   0.00000   3.14159
    D2        0.00000   0.00000   0.00000  -0.00000   0.00000   0.00000
    D3        0.00000   0.00000   0.00000  -0.00000   0.00000   0.00000
    D4        3.14159   0.00000   0.00000  -0.00000   0.00000   3.14159
    D5        3.14159  -0.00000   0.00000  -0.00000   0.00000   3.14159
    D6        0.00000  -0.00000   0.00000  -0.00000   0.00000   0.00000
    D7        0.00000  -0.00000   0.00000  -0.00000   0.00000   0.00000
    D8        3.14159   0.00000   0.00000  -0.00000   0.00000   3.14159
    D9        0.00000  -0.00000   0.00000   0.00000   0.00000   0.00000
   D10        3.14159   0.00000   0.00000  -0.00000   0.00000   3.14159
   D11        3.14159  -0.00000   0.00000   0.00000   0.00000   3.14159
   D12        0.00000  -0.00000   0.00000   0.00000   0.00000   0.00000
         Item               Value     Threshold  Converged?
 Maximum Force            0.000001     0.000002     YES
 RMS     Force            0.000000     0.000001     YES
 Maximum Displacement     0.000004     0.000006     YES
 RMS     Displacement     0.000001     0.000004     YES
 Predicted change in Energy=-1.530369D-12
 Optimization completed.
    -- Stationary point found.
                           ----------------------------
                           !   Optimized Parameters   !
                           ! (Angstroms and Degrees)  !
 --------------------------                            --------------------------
 ! Name  Definition              Value          Derivative Info.                !
 --------------------------------------------------------------------------------
 ! R1    R(1,2)                  1.0905         -DE/DX =    0.0                 !
 ! R2    R(1,3)                  1.4575         -DE/DX =    0.0                 !
 ! R3    R(1,8)                  1.3406         -DE/DX =    0.0                 !
 ! R4    R(3,4)                  1.0905         -DE/DX =    0.0                 !
 ! R5    R(3,5)                  1.3406         -DE/DX =    0.0                 !
 ! R6    R(5,6)                  1.0879         -DE/DX =    0.0                 !
 ! R7    R(5,7)                  1.0858         -DE/DX =    0.0                 !
 ! R8    R(8,9)                  1.0879         -DE/DX =    0.0                 !
 ! R9    R(8,10)                 1.0858         -DE/DX =    0.0                 !
 ! A1    A(2,1,3)              116.2461         -DE/DX =    0.0                 !
 ! A2    A(2,1,8)              119.4426         -DE/DX =    0.0                 !
 ! A3    A(3,1,8)              124.3112         -DE/DX =    0.0                 !
 ! A4    A(1,3,4)              116.2461         -DE/DX =    0.0                 !
 ! A5    A(1,3,5)              124.3112         -DE/DX =    0.0                 !
 ! A6    A(4,3,5)              119.4426         -DE/DX =    0.0                 !
 ! A7    A(3,5,6)              121.5459         -DE/DX =    0.0                 !
 ! A8    A(3,5,7)              121.8316         -DE/DX =    0.0                 !
 ! A9    A(6,5,7)              116.6224         -DE/DX =    0.0                 !
 ! A10   A(1,8,9)              121.5459         -DE/DX =    0.0                 !
 ! A11   A(1,8,10)             121.8316         -DE/DX =    0.0                 !
 ! A12   A(9,8,10)             116.6224         -DE/DX =    0.0                 !
 ! D1    D(2,1,3,4)            180.0            -DE/DX =    0.0                 !
 ! D2    D(2,1,3,5)              0.0            -DE/DX =    0.0                 !
 ! D3    D(8,1,3,4)              0.0            -DE/DX =    0.0                 !
 ! D4    D(8,1,3,5)            180.0            -DE/DX =    0.0                 !
 ! D5    D(2,1,8,9)            180.0            -DE/DX =    0.0                 !
 ! D6    D(2,1,8,10)             0.0            -DE/DX =    0.0                 !
 ! D7    D(3,1,8,9)              0.0            -DE/DX =    0.0                 !
 ! D8    D(3,1,8,10)           180.0            -DE/DX =    0.0                 !
 ! D9    D(1,3,5,6)              0.0            -DE/DX =    0.0                 !
 ! D10   D(1,3,5,7)            180.0            -DE/DX =    0.0                 !
 ! D11   D(4,3,5,6)            180.0            -DE/DX =    0.0                 !
 ! D12   D(4,3,5,7)              0.0            -DE/DX =    0.0                 !
 --------------------------------------------------------------------------------
 GradGradGradGradGradGradGradGradGradGradGradGradGradGradGradGradGradGrad

 Dipole is zero, so no output in dipole orientation.

 ----------------------------------------------------------------------

 Electric dipole moment (input orientation):
 (Debye = 10**-18 statcoulomb cm , SI units = C m)
                  (au)            (Debye)         (10**-30 SI)
   Tot        0.000000D+00      0.000000D+00      0.000000D+00
   x          0.000000D+00      0.000000D+00      0.000000D+00
   y          0.000000D+00      0.000000D+00      0.000000D+00
   z          0.000000D+00      0.000000D+00      0.000000D+00

 Dipole polarizability, Alpha (input orientation).
 (esu units = cm**3 , SI units = C**2 m**2 J**-1)
 Alpha(0;0):
               (au)            (10**-24 esu)      (10**-40 SI)
   iso        0.441213D+02      0.653811D+01      0.727462D+01
   aniso      0.552442D+02      0.818634D+01      0.910853D+01
   xx         0.774528D+02      0.114773D+02      0.127702D+02
   yx        -0.644044D+01     -0.954375D+00     -0.106189D+01
   yy         0.393964D+02      0.583795D+01      0.649560D+01
   zx         0.000000D+00      0.000000D+00      0.000000D+00
   zy         0.000000D+00      0.000000D+00      0.000000D+00
   zz         0.155147D+02      0.229904D+01      0.255803D+01

 ----------------------------------------------------------------------
 1\1\GINC-ALGETE\Freq\RB3LYP\6-31G(d)\C4H6\SONATAK\29-Apr-2019\0\\#N Ge
 om=AllCheck Guess=TCheck SCRF=Check GenChk RB3LYP/6-31G(d) Freq\\Butad
 iene optimization and frequencies\\0,1\C,0.6154127509,0.3903062512,0.\
 H,0.498825303,1.4745276873,0.\C,-0.6154127509,-0.3903062512,0.\H,-0.49
 8825303,-1.4745276873,0.\C,-1.8465946604,0.1400554867,0.\H,-2.00253059
 43,1.216743646,0.\H,-2.737513759,-0.480608498,0.\C,1.8465946604,-0.140
 0554867,0.\H,2.0025305943,-1.216743646,0.\H,2.737513759,0.480608498,0.
 \\Version=EM64L-G16RevB.01\State=1-AG\HF=-155.9921396\RMSD=3.676e-09\R
 MSF=1.925e-07\ZeroPoint=0.085478\Thermal=0.090125\Dipole=0.,0.,0.\Dipo
 leDeriv=0.135666,-0.0163564,0.,0.0883217,0.1090408,0.,0.,0.,-0.072258,
 0.0129586,0.0396966,0.,-0.0149984,-0.1217776,0.,0.,0.,0.1099766,0.1356
 66,-0.0163564,0.,0.0883216,0.1090408,0.,0.,0.,-0.072258,0.0129586,0.03
 96966,0.,-0.0149984,-0.1217776,0.,0.,0.,0.1099766,-0.1330542,0.042864,
 0.,-0.0210365,0.1265089,0.,0.,0.,-0.3115454,0.0423548,-0.0164265,0.,0.
 0259664,-0.1080476,0.,0.,0.,0.1389817,-0.0579252,-0.0497778,0.,-0.0782
 532,-0.0057246,0.,0.,0.,0.134845,-0.1330542,0.042864,0.,-0.0210365,0.1
 265089,0.,0.,0.,-0.3115454,0.0423548,-0.0164265,0.,0.0259664,-0.108047
 6,0.,0.,0.,0.1389817,-0.0579252,-0.0497778,0.,-0.0782532,-0.0057246,0.
 ,0.,0.,0.134845\Polar=77.4528388,-6.4404439,39.3964414,0.,0.,15.514689
 3\Quadrupole=1.2079861,1.371278,-2.5792641,-0.0037775,0.,0.\PG=C02H [S
 GH(C4H6)]\NImag=0\\0.78325307,-0.10819687,0.68159029,0.,0.,0.13270816,
 -0.06079520,0.02571820,0.,0.06352653,0.02722624,-0.32479434,0.,-0.0302
 5607,0.34795792,0.,0.,-0.04148173,0.,0.,0.02708893,-0.18840517,-0.0800
 2946,0.,0.00394937,0.00333588,0.,0.78325307,-0.08002946,-0.16697417,0.
 ,-0.02734647,-0.01642439,0.,-0.10819687,0.68159029,0.,0.,-0.06501923,0
 .,0.,0.00299560,0.,0.,0.13270816,0.00394937,-0.02734647,0.,-0.00411988
 ,-0.00252979,0.,-0.06079520,0.02571820,0.,0.06352653,0.00333588,-0.016
 42439,0.,-0.00252979,-0.00051460,0.,0.02722624,-0.32479434,0.,-0.03025
 607,0.34795792,0.,0.,0.00299560,0.,0.,0.00320926,0.,0.,-0.04148173,0.,
 0.,0.02708893,-0.05216484,0.00763386,0.,0.00177998,0.00118119,0.,-0.46
 592675,0.16424219,0.,-0.00075042,0.00025444,0.,0.82229771,-0.01015334,
 0.01636693,0.,-0.00101007,0.00111829,0.,0.15351763,-0.18993378,0.,0.03
 224173,-0.01035900,0.,-0.06553024,0.67458288,0.,0.,0.00602388,0.,0.,-0
 .00131057,0.,0.,-0.04905105,0.,0.,0.00526054,0.,0.,0.10358211,0.001786
 88,0.00189696,0.,-0.00023273,-0.00096743,0.,0.00037310,0.03128847,0.,-
 0.00460604,0.00172562,0.,-0.06450445,0.03304703,0.,0.06080754,-0.00220
 211,0.00098366,0.,0.00099959,0.00060889,0.,0.00110437,-0.01091697,0.,0
 .00203853,0.00068767,0.,0.03674367,-0.33308573,0.,-0.04284130,0.353625
 92,0.,0.,-0.00784373,0.,0.,0.00025135,0.,0.,0.00471199,0.,0.,0.0114234
 9,0.,0.,-0.03401122,0.,0.,0.02255611,-0.00237233,0.00449379,0.,0.00015
 971,-0.00013755,0.,-0.01969813,-0.01970069,0.,0.00108869,0.00016748,0.
 ,-0.24661503,-0.13378934,0.,0.00631789,0.00408382,0.,0.26229081,0.0019
 1292,-0.00121507,0.,0.00038466,0.00041683,0.,0.01348475,0.01131785,0.,
 -0.00024031,0.00130273,0.,-0.13835919,-0.15733035,0.,-0.02359563,-0.01
 228367,0.,0.14594036,0.15705138,0.,0.,0.01266711,0.,0.,-0.00024010,0.,
 0.,0.00428901,0.,0.,-0.00719678,0.,0.,-0.03249812,0.,0.,0.00218006,0.,
 0.,0.02212823,-0.46592675,0.16424219,0.,-0.00075042,0.00025444,0.,-0.0
 5216484,0.00763386,0.,0.00177998,0.00118119,0.,0.00673379,-0.00673480,
 0.,-0.00009071,0.00020770,0.,-0.00075928,0.00036117,0.,0.82229771,0.15
 351763,-0.18993378,0.,0.03224173,-0.01035900,0.,-0.01015334,0.01636693
 ,0.,-0.00101007,0.00111829,0.,-0.00673480,-0.00261284,0.,-0.00023802,0
 .00041848,0.,-0.00135058,0.00083513,0.,-0.06553024,0.67458288,0.,0.,-0
 .04905105,0.,0.,0.00526054,0.,0.,0.00602388,0.,0.,-0.00131057,0.,0.,0.
 00199311,0.,0.,0.00016168,0.,0.,-0.00015034,0.,0.,0.10358211,0.0003731
 0,0.03128847,0.,-0.00460604,0.00172562,0.,0.00178688,0.00189696,0.,-0.
 00023273,-0.00096743,0.,-0.00009071,-0.00023802,0.,0.00012032,-0.00022
 586,0.,0.00002821,-0.00008985,0.,-0.06450445,0.03304703,0.,0.06080754,
 0.00110437,-0.01091697,0.,0.00203853,0.00068767,0.,-0.00220211,0.00098
 366,0.,0.00099959,0.00060889,0.,0.00020770,0.00041848,0.,-0.00022586,-
 0.00002689,0.,0.00009159,-0.00001136,0.,0.03674367,-0.33308573,0.,-0.0
 4284130,0.35362592,0.,0.,0.00471199,0.,0.,0.01142349,0.,0.,-0.00784373
 ,0.,0.,0.00025135,0.,0.,0.00016168,0.,0.,0.00030393,0.,0.,0.00026634,0
 .,0.,-0.03401122,0.,0.,0.02255611,-0.01969813,-0.01970069,0.,0.0010886
 9,0.00016748,0.,-0.00237233,0.00449379,0.,0.00015971,-0.00013755,0.,-0
 .00075928,-0.00135058,0.,0.00002821,0.00009159,0.,-0.00044053,0.000201
 11,0.,-0.24661503,-0.13378934,0.,0.00631789,0.00408382,0.,0.26229081,0
 .01348475,0.01131785,0.,-0.00024031,0.00130273,0.,0.00191292,-0.001215
 07,0.,0.00038466,0.00041683,0.,0.00036117,0.00083513,0.,-0.00008985,-0
 .00001136,0.,0.00020111,-0.00008347,0.,-0.13835919,-0.15733035,0.,-0.0
 2359563,-0.01228367,0.,0.14594036,0.15705138,0.,0.,0.00428901,0.,0.,-0
 .00719678,0.,0.,0.01266711,0.,0.,-0.00024010,0.,0.,-0.00015034,0.,0.,0
 .00026634,0.,0.,-0.00144541,0.,0.,-0.03249812,0.,0.,0.00218006,0.,0.,0
 .02212823\\0.00000017,0.00000052,0.,0.00000031,-0.00000019,0.,-0.00000
 017,-0.00000052,0.,-0.00000031,0.00000019,0.,-0.00000016,0.00000026,0.
 ,0.00000015,-0.00000005,0.,-0.00000005,0.00000003,0.,0.00000016,-0.000
 00026,0.,-0.00000015,0.00000005,0.,0.00000005,-0.00000003,0.\\\@


 Statistics are no substitute for judgment.
                            -- Henry Clay
 Job cpu time:       0 days  0 hours  1 minutes 41.6 seconds.
 Elapsed time:       0 days  0 hours  1 minutes 52.5 seconds.
 File lengths (MBytes):  RWF=      7 Int=      0 D2E=      0 Chk=      2 Scr=      1
 Normal termination of Gaussian 16 at Mon Apr 29 21:13:43 2019.
