10
Scan step 9     E=    -155.980090                                                                   
C          0.55248       -0.49824        0.37395
H          1.40733       -0.27647        1.01597
C         -0.55248        0.49824        0.37395
H         -1.40733        0.27647        1.01597
C         -0.55248        1.63059       -0.33166
H          0.27548        1.89940       -0.98355
H         -1.38537        2.32754       -0.28614
C          0.55248       -1.63059       -0.33166
H         -0.27548       -1.89940       -0.98355
H          1.38537       -2.32754       -0.28614
