10
Scan step 2     E=    -155.991795                                                                   
C          0.60990        0.39932        0.05394
H          0.47827        1.48101        0.09639
C         -0.60990       -0.39932        0.05394
H         -0.47827       -1.48101        0.09639
C         -1.84619        0.10977       -0.04257
H         -2.01741        1.18267       -0.09883
H         -2.72660       -0.52532       -0.06575
C          1.84619       -0.10977       -0.04257
H          2.01741       -1.18267       -0.09883
H          2.72660        0.52532       -0.06575
