FCHK created with read_scan from butadiene_scan.fchk
Scan      RB3LYP                                                      6-31G(d)  
Number of atoms                            I               10
Charge                                     I                0
Multiplicity                               I                1
Atomic numbers                             I   N=          10
           6           1           6           1           6           1
           1           6           1           1
Nuclear charges                            R   N=          10
  6.00000000E+00  1.00000000E+00  6.00000000E+00  1.00000000E+00  6.00000000E+00
  1.00000000E+00  1.00000000E+00  6.00000000E+00  1.00000000E+00  1.00000000E+00
Current cartesian coordinates              R   N=          30
  3.17446733E-01 -1.35257273E+00  1.05958315E+00  8.21513452E-01 -2.13764702E+00
  2.89627183E+00 -3.17446733E-01  1.35257273E+00  1.05958315E+00 -8.21513452E-01
  2.13764702E+00  2.89627183E+00 -3.17446733E-01  2.89914161E+00 -9.44522309E-01
  2.40037976E-01  2.26178983E+00 -2.81654474E+00 -8.54438124E-01  4.87218070E+00
 -7.70092133E-01  3.17446733E-01 -2.89914161E+00 -9.44522309E-01 -2.40037976E-01
 -2.26178983E+00 -2.81654474E+00  8.54438124E-01 -4.87218070E+00 -7.70092133E-01
Integer atomic weights                     I   N=          30
           0          -1           1           0          -2           2
           0           1           1           0           2           2
           0           2           0           0           2          -2
           0           4           0           0          -2           0
           0          -2          -2           0          -4           0
Real atomic weights                        R   N=          30
  3.17446733E-01 -1.35257273E+00  1.05958315E+00  8.21513452E-01 -2.13764702E+00
  2.89627183E+00 -3.17446733E-01  1.35257273E+00  1.05958315E+00 -8.21513452E-01
  2.13764702E+00  2.89627183E+00 -3.17446733E-01  2.89914161E+00 -9.44522309E-01
  2.40037976E-01  2.26178983E+00 -2.81654474E+00 -8.54438124E-01  4.87218070E+00
 -7.70092133E-01  3.17446733E-01 -2.89914161E+00 -9.44522309E-01 -2.40037976E-01
 -2.26178983E+00 -2.81654474E+00  8.54438124E-01 -4.87218070E+00 -7.70092133E-01
Total Energy                               R     -1.559863350000000E+02
Cartesian Gradient                         R   N=          30
 -7.82981886E-03 -1.77940940E-03  8.38525232E-04  1.98227555E-03  3.76185241E-04
 -3.48434069E-04  7.82981886E-03  1.77940940E-03  8.38525232E-04 -1.98227555E-03
 -3.76185241E-04 -3.48434069E-04 -1.35958275E-03 -7.87255210E-04 -3.52766600E-04
 -1.28706634E-04 -4.64602645E-04 -1.06455277E-04 -4.69158602E-04 -3.18979364E-05
 -3.08692864E-05  1.35958275E-03  7.87255210E-04 -3.52766600E-04  1.28706634E-04
  4.64602645E-04 -1.06455277E-04  4.69158602E-04  3.18979364E-05 -3.08692864E-05
