FCHK created with read_scan from butadiene_scan.fchk
Scan      RB3LYP                                                      6-31G(d)  
Number of atoms                            I               10
Charge                                     I                0
Multiplicity                               I                1
Atomic numbers                             I   N=          10
           6           1           6           1           6           1
           1           6           1           1
Nuclear charges                            R   N=          10
  6.00000000E+00  1.00000000E+00  6.00000000E+00  1.00000000E+00  6.00000000E+00
  1.00000000E+00  1.00000000E+00  6.00000000E+00  1.00000000E+00  1.00000000E+00
Current cartesian coordinates              R   N=          30
  6.04853516E-01 -1.25098152E+00  1.02672701E+00  1.49578889E+00 -1.82057904E+00
  2.79655508E+00 -6.04853516E-01  1.25098152E+00  1.02672701E+00 -1.49578889E+00
  1.82057904E+00  2.79655508E+00 -6.04853516E-01  2.87357778E+00 -9.13823320E-01
  3.56758112E-01  2.44139809E+00 -2.67722227E+00 -1.55584463E+00  4.68922404E+00
 -7.96754919E-01  6.04853516E-01 -2.87357778E+00 -9.13823320E-01 -3.56758112E-01
 -2.44139809E+00 -2.67722227E+00  1.55584463E+00 -4.68922404E+00 -7.96754919E-01
Integer atomic weights                     I   N=          30
           0          -1           1           1          -1           2
           0           1           1          -1           1           2
           0           2           0           0           2          -2
          -1           4           0           0          -2           0
           0          -2          -2           1          -4           0
Real atomic weights                        R   N=          30
  6.04853516E-01 -1.25098152E+00  1.02672701E+00  1.49578889E+00 -1.82057904E+00
  2.79655508E+00 -6.04853516E-01  1.25098152E+00  1.02672701E+00 -1.49578889E+00
  1.82057904E+00  2.79655508E+00 -6.04853516E-01  2.87357778E+00 -9.13823320E-01
  3.56758112E-01  2.44139809E+00 -2.67722227E+00 -1.55584463E+00  4.68922404E+00
 -7.96754919E-01  6.04853516E-01 -2.87357778E+00 -9.13823320E-01 -3.56758112E-01
 -2.44139809E+00 -2.67722227E+00  1.55584463E+00 -4.68922404E+00 -7.96754919E-01
Total Energy                               R     -1.559862880000000E+02
Cartesian Gradient                         R   N=          30
 -2.52823272E-03 -1.89749644E-03  4.23813770E-04  1.84142335E-03  1.01663767E-03
 -5.08244097E-04  2.52823272E-03  1.89749644E-03  4.23813770E-04 -1.84142335E-03
 -1.01663767E-03 -5.08244097E-04  9.42233777E-04  1.45371367E-04  4.19318289E-04
 -3.51291256E-04 -3.81963871E-04 -2.60315205E-04 -3.04218720E-04 -5.72374806E-05
 -7.45727569E-05 -9.42233777E-04 -1.45371367E-04  4.19318289E-04  3.51291256E-04
  3.81963871E-04 -2.60315205E-04  3.04218720E-04  5.72374806E-05 -7.45727569E-05
