FCHK created with read_scan from butadiene_scan.fchk
Scan      RB3LYP                                                      6-31G(d)  
Number of atoms                            I               10
Charge                                     I                0
Multiplicity                               I                1
Atomic numbers                             I   N=          10
           6           1           6           1           6           1
           1           6           1           1
Nuclear charges                            R   N=          10
  6.00000000E+00  1.00000000E+00  6.00000000E+00  1.00000000E+00  6.00000000E+00
  1.00000000E+00  1.00000000E+00  6.00000000E+00  1.00000000E+00  1.00000000E+00
Current cartesian coordinates              R   N=          30
  1.09927982E+00 -8.64705302E-01  5.65852634E-01  2.87329563E+00 -1.04349629E-01
  1.29054814E+00 -1.09927982E+00  8.64705302E-01  5.65852634E-01 -2.87329563E+00
  1.04349629E-01  1.29054814E+00 -1.09927982E+00  3.16445323E+00 -4.77737438E-01
  6.00068714E-01  3.98773402E+00 -1.29086550E+00 -2.79654797E+00  4.31876132E+00
 -5.28373817E-01  1.09927982E+00 -3.16445323E+00 -4.77737438E-01 -6.00068714E-01
 -3.98773402E+00 -1.29086550E+00  2.79654797E+00 -4.31876132E+00 -5.28373817E-01
Integer atomic weights                     I   N=          30
           1           0           0           2           0           1
          -1           0           0          -2           0           1
          -1           3           0           0           3          -1
          -2           4           0           1          -3           0
           0          -3          -1           2          -4           0
Real atomic weights                        R   N=          30
  1.09927982E+00 -8.64705302E-01  5.65852634E-01  2.87329563E+00 -1.04349629E-01
  1.29054814E+00 -1.09927982E+00  8.64705302E-01  5.65852634E-01 -2.87329563E+00
  1.04349629E-01  1.29054814E+00 -1.09927982E+00  3.16445323E+00 -4.77737438E-01
  6.00068714E-01  3.98773402E+00 -1.29086550E+00 -2.79654797E+00  4.31876132E+00
 -5.28373817E-01  1.09927982E+00 -3.16445323E+00 -4.77737438E-01 -6.00068714E-01
 -3.98773402E+00 -1.29086550E+00  2.79654797E+00 -4.31876132E+00 -5.28373817E-01
Total Energy                               R     -1.559822830000000E+02
Cartesian Gradient                         R   N=          30
 -7.38781094E-03 -5.32574015E-03  1.02421864E-02  4.72631673E-04  7.62769324E-05
 -2.65143433E-03  7.38781094E-03  5.32574015E-03  1.02421864E-02 -4.72631673E-04
 -7.62769324E-05 -2.65143433E-03 -2.79818632E-03 -2.91708778E-03 -7.00912877E-03
 -5.87011835E-06 -2.10953466E-04 -2.69429008E-04  2.05671974E-05 -3.15472177E-05
 -3.12194317E-04  2.79818632E-03  2.91708778E-03 -7.00912877E-03  5.87011835E-06
  2.10953466E-04 -2.69429008E-04 -2.05671974E-05  3.15472177E-05 -3.12194317E-04
