FCHK created with read_scan from butadiene_scan.fchk
Scan      RB3LYP                                                      6-31G(d)  
Number of atoms                            I               10
Charge                                     I                0
Multiplicity                               I                1
Atomic numbers                             I   N=          10
           6           1           6           1           6           1
           1           6           1           1
Nuclear charges                            R   N=          10
  6.00000000E+00  1.00000000E+00  6.00000000E+00  1.00000000E+00  6.00000000E+00
  1.00000000E+00  1.00000000E+00  6.00000000E+00  1.00000000E+00  1.00000000E+00
Current cartesian coordinates              R   N=          30
  1.30032421E+00  7.87783451E-01 -5.26644264E-01  1.64364877E+00  2.06894484E+00
 -2.10805969E+00 -1.30307023E+00  7.88745638E-01  5.27200941E-01 -1.70789246E+00
  2.20907644E+00  1.96960365E+00 -3.16978906E+00 -7.08888996E-01 -2.66187301E-01
 -2.87138974E+00 -2.12172732E+00 -1.72817950E+00 -5.05737241E+00 -5.88878848E-01
  5.35265065E-01  3.17782660E+00 -6.89589653E-01  2.79229299E-01  2.91812144E+00
 -2.01445783E+00  1.82828614E+00  5.04313530E+00 -6.21259922E-01 -5.78507716E-01
Integer atomic weights                     I   N=          30
           1           0           0           1           2          -2
          -1           0           0          -1           2           1
          -3           0           0          -2          -2          -1
          -5           0           0           3           0           0
           2          -2           1           5           0           0
Real atomic weights                        R   N=          30
  1.30032421E+00  7.87783451E-01 -5.26644264E-01  1.64364877E+00  2.06894484E+00
 -2.10805969E+00 -1.30307023E+00  7.88745638E-01  5.27200941E-01 -1.70789246E+00
  2.20907644E+00  1.96960365E+00 -3.16978906E+00 -7.08888996E-01 -2.66187301E-01
 -2.87138974E+00 -2.12172732E+00 -1.72817950E+00 -5.05737241E+00 -5.88878848E-01
  5.35265065E-01  3.17782660E+00 -6.89589653E-01  2.79229299E-01  2.91812144E+00
 -2.01445783E+00  1.82828614E+00  5.04313530E+00 -6.21259922E-01 -5.78507716E-01
Total Energy                               R     -1.559804860000000E+02
Cartesian Gradient                         R   N=          30
 -5.08815943E-03 -6.11959612E-03 -1.49537474E-02  2.49631997E-03 -4.83660882E-05
  5.58697874E-03  4.07189590E-05  1.45506441E-02  8.04331392E-03 -1.30583041E-04
 -5.19908827E-03 -1.78049752E-03  1.00862399E-03 -3.64636551E-03 -2.56033330E-04
  1.51052603E-04 -4.43033910E-04 -3.22917211E-04  3.03748197E-04 -5.06898720E-04
 -1.43557395E-04  9.50338901E-04  1.46712696E-03  2.69112703E-03  7.49382027E-05
 -5.33530552E-05  7.14689395E-04  1.93001647E-04 -1.06938323E-06  4.20643793E-04
