FCHK created with read_scan from butadiene_scan.fchk
Scan      RB3LYP                                                      6-31G(d)  
Number of atoms                            I               10
Charge                                     I                0
Multiplicity                               I                1
Atomic numbers                             I   N=          10
           6           1           6           1           6           1
           1           6           1           1
Nuclear charges                            R   N=          10
  6.00000000E+00  1.00000000E+00  6.00000000E+00  1.00000000E+00  6.00000000E+00
  1.00000000E+00  1.00000000E+00  6.00000000E+00  1.00000000E+00  1.00000000E+00
Current cartesian coordinates              R   N=          30
  1.15598111E+00  7.57722028E-01  1.16646167E-01  9.34014196E-01  2.78744064E+00
  3.95348563E-01 -1.15611580E+00 -7.45404455E-01  1.66770823E-01 -9.12684164E-01
 -2.78589340E+00  3.21984592E-01 -3.48493216E+00  2.06091526E-01 -1.27027773E-01
 -3.80440129E+00  2.22652676E+00 -3.33451321E-01 -5.14879071E+00 -9.94679310E-01
 -1.47719167E-01  3.48301128E+00 -2.13922365E-01 -1.18602574E-01  3.78919729E+00
 -2.23584169E+00 -3.30845607E-01  5.15499810E+00  9.75526592E-01 -1.32036919E-01
Integer atomic weights                     I   N=          30
           1           0           0           0           2           0
          -1           0           0           0          -2           0
          -3           0           0          -3           2           0
          -5           0           0           3           0           0
           3          -2           0           5           0           0
Real atomic weights                        R   N=          30
  1.15598111E+00  7.57722028E-01  1.16646167E-01  9.34014196E-01  2.78744064E+00
  3.95348563E-01 -1.15611580E+00 -7.45404455E-01  1.66770823E-01 -9.12684164E-01
 -2.78589340E+00  3.21984592E-01 -3.48493216E+00  2.06091526E-01 -1.27027773E-01
 -3.80440129E+00  2.22652676E+00 -3.33451321E-01 -5.14879071E+00 -9.94679310E-01
 -1.47719167E-01  3.48301128E+00 -2.13922365E-01 -1.18602574E-01  3.78919729E+00
 -2.23584169E+00 -3.30845607E-01  5.15499810E+00  9.75526592E-01 -1.32036919E-01
Total Energy                               R     -1.559909560000000E+02
Cartesian Gradient                         R   N=          30
 -2.12961046E-03  2.89619268E-04 -1.57027270E-02  1.07443703E-03 -2.73036642E-04
  5.51020604E-03  1.68095061E-03  3.97056652E-04  1.53041170E-02 -7.54922992E-04
 -3.39685737E-05 -3.06680043E-03  1.75565121E-04 -7.67380028E-04 -3.18638507E-03
  4.38940144E-05  1.73145763E-04 -6.25132924E-04  9.50709123E-05 -2.13537088E-05
 -7.33895784E-04 -1.24718903E-04  3.71387969E-04  1.12300830E-03 -6.55764046E-05
 -5.28959408E-05  1.11822891E-04  4.91107307E-06 -8.25747583E-05  1.26578702E-03
