FCHK created with read_scan from butadiene_scan.fchk
Scan      RB3LYP                                                      6-31G(d)  
Number of atoms                            I               10
Charge                                     I                0
Multiplicity                               I                1
Atomic numbers                             I   N=          10
           6           1           6           1           6           1
           1           6           1           1
Nuclear charges                            R   N=          10
  6.00000000E+00  1.00000000E+00  6.00000000E+00  1.00000000E+00  6.00000000E+00
  1.00000000E+00  1.00000000E+00  6.00000000E+00  1.00000000E+00  1.00000000E+00
Current cartesian coordinates              R   N=          30
  1.20747434E+00  7.40896617E-01  3.86860066E-01  1.21997469E+00  2.64207422E+00
  1.18344461E+00 -1.20598110E+00 -6.56304979E-01  4.95470962E-01 -1.10075717E+00
 -2.60849429E+00  1.14816463E+00 -3.40557378E+00  2.13308298E-01 -3.94965891E-01
 -3.59364516E+00  2.11883949E+00 -1.14369337E+00 -5.10597286E+00 -9.37135038E-01
 -3.71838676E-01  3.39319191E+00 -2.69328545E-01 -3.80383858E-01  3.50811716E+00
 -2.19974390E+00 -1.07893584E+00  5.13761510E+00  8.13031178E-01 -3.79029026E-01
Integer atomic weights                     I   N=          30
           1           0           0           1           2           1
          -1           0           0          -1          -2           1
          -3           0           0          -3           2          -1
          -5           0           0           3           0           0
           3          -2          -1           5           0           0
Real atomic weights                        R   N=          30
  1.20747434E+00  7.40896617E-01  3.86860066E-01  1.21997469E+00  2.64207422E+00
  1.18344461E+00 -1.20598110E+00 -6.56304979E-01  4.95470962E-01 -1.10075717E+00
 -2.60849429E+00  1.14816463E+00 -3.40557378E+00  2.13308298E-01 -3.94965891E-01
 -3.59364516E+00  2.11883949E+00 -1.14369337E+00 -5.10597286E+00 -9.37135038E-01
 -3.71838676E-01  3.39319191E+00 -2.69328545E-01 -3.80383858E-01  3.50811716E+00
 -2.19974390E+00 -1.07893584E+00  5.13761510E+00  8.13031178E-01 -3.79029026E-01
Total Energy                               R     -1.559835590000000E+02
Cartesian Gradient                         R   N=          30
 -8.62487062E-03  2.97158027E-03 -2.48399533E-02  3.74887952E-03 -3.96023865E-03
  9.96737750E-03  3.42248032E-03  5.82560314E-03  2.45939534E-02 -1.22695716E-03
 -6.56560197E-04 -4.24395148E-03  1.71457301E-03 -3.87080415E-03 -7.51776333E-03
  2.66264194E-04  1.71624956E-05 -4.18725154E-04  3.43117477E-04 -1.30169972E-04
 -7.34578785E-04  3.88444241E-04  1.27715988E-04  1.92659363E-03 -1.55873673E-04
 -7.38850233E-05  4.31805856E-04  1.23942700E-04 -2.50403901E-04  8.35241620E-04
