FCHK created with read_scan from butadiene_scanMM.fchk
Scan      RExternal='gromacs_link.sh  -p joyce.new.top'               ZDO       
Number of atoms                            I               10
Charge                                     I                0
Multiplicity                               I                1
Atomic numbers                             I   N=          10
           6           1           6           1           6           1
           1           6           1           1
Nuclear charges                            R   N=          10
  6.00000000E+00  1.00000000E+00  6.00000000E+00  1.00000000E+00  6.00000000E+00
  1.00000000E+00  1.00000000E+00  6.00000000E+00  1.00000000E+00  1.00000000E+00
Current cartesian coordinates              R   N=          30
  1.37693261E+00  1.11238003E+00 -1.07764344E-04  2.28785456E+00  2.95981194E+00
  1.78632459E-04 -1.37693813E+00  1.11240273E+00 -1.11903086E-04 -2.28787267E+00
  2.95982963E+00  4.58871143E-04 -2.80535149E+00 -9.80762513E-01  3.20970728E-05
 -1.96487401E+00 -2.85714855E+00 -1.67580034E-04 -4.85569358E+00 -8.92447521E-01
  1.83031521E-04  2.80537115E+00 -9.80784109E-01  3.49324819E-05  1.96479401E+00
 -2.85712492E+00  5.45611466E-05  4.85570688E+00 -8.92337447E-01  2.08311013E-04
Integer atomic weights                     I   N=          30
           1           1           0           2           2           0
          -1           1           0          -2           2           0
          -2           0           0          -1          -2           0
          -4           0           0           2           0           0
           1          -2           0           4           0           0
Real atomic weights                        R   N=          30
  1.37693261E+00  1.11238003E+00 -1.07764344E-04  2.28785456E+00  2.95981194E+00
  1.78632459E-04 -1.37693813E+00  1.11240273E+00 -1.11903086E-04 -2.28787267E+00
  2.95982963E+00  4.58871143E-04 -2.80535149E+00 -9.80762513E-01  3.20970728E-05
 -1.96487401E+00 -2.85714855E+00 -1.67580034E-04 -4.85569358E+00 -8.92447521E-01
  1.83031521E-04  2.80537115E+00 -9.80784109E-01  3.49324819E-05  1.96479401E+00
 -2.85712492E+00  5.45611466E-05  4.85570688E+00 -8.92337447E-01  2.08311013E-04
Total Energy                               R      6.230501430000000E-03
Cartesian Gradient                         R   N=          30
 -1.00094417E-04  2.37743792E-04  7.62170446E-03  9.72692497E-05 -1.71419570E-04
 -2.09723901E-03  3.01503050E-04  3.47225336E-04 -8.33332744E-03 -2.26102094E-04
 -2.86170918E-04  2.47103911E-03 -1.80564431E-04  8.96152766E-05  1.25879690E-03
  5.75834748E-05 -1.21255461E-04  2.20091785E-04  5.05970451E-06  3.77067265E-06
  4.72288938E-04  9.88836888E-05  1.94309334E-05 -9.17918469E-04 -5.31108134E-05
 -1.20932573E-04 -2.22867169E-04 -4.27955353E-07  1.99441678E-06 -4.72595299E-04
