FCHK created with read_scan from butadiene_scanMM.fchk
Scan      RExternal='gromacs_link.sh  -p joyce.new.top'               ZDO       
Number of atoms                            I               10
Charge                                     I                0
Multiplicity                               I                1
Atomic numbers                             I   N=          10
           6           1           6           1           6           1
           1           6           1           1
Nuclear charges                            R   N=          10
  6.00000000E+00  1.00000000E+00  6.00000000E+00  1.00000000E+00  6.00000000E+00
  1.00000000E+00  1.00000000E+00  6.00000000E+00  1.00000000E+00  1.00000000E+00
Current cartesian coordinates              R   N=          30
  1.28720544E+00  8.48740545E-01 -4.87334002E-01  1.74750834E+00  2.32985341E+00
 -1.84279567E+00 -1.28752150E+00  8.48545687E-01  4.88052339E-01 -1.75021250E+00
  2.33427063E+00  1.83758004E+00 -3.09897868E+00 -7.55598451E-01 -2.65040273E-01
 -2.72280866E+00 -2.23146513E+00 -1.64617659E+00 -5.00717934E+00 -6.62555943E-01
  4.84500638E-01  3.09942716E+00 -7.54853075E-01  2.65084199E-01  2.72522593E+00
 -2.22830760E+00  1.64932668E+00  5.00667170E+00 -6.62803607E-01 -4.87008670E-01
Integer atomic weights                     I   N=          30
           1           0           0           1           2          -1
          -1           0           0          -1           2           1
          -3           0           0          -2          -2          -1
          -5           0           0           3           0           0
           2          -2           1           5           0           0
Real atomic weights                        R   N=          30
  1.28720544E+00  8.48740545E-01 -4.87334002E-01  1.74750834E+00  2.32985341E+00
 -1.84279567E+00 -1.28752150E+00  8.48545687E-01  4.88052339E-01 -1.75021250E+00
  2.33427063E+00  1.83758004E+00 -3.09897868E+00 -7.55598451E-01 -2.65040273E-01
 -2.72280866E+00 -2.23146513E+00 -1.64617659E+00 -5.00717934E+00 -6.62555943E-01
  4.84500638E-01  3.09942716E+00 -7.54853075E-01  2.65084199E-01  2.72522593E+00
 -2.22830760E+00  1.64932668E+00  5.00667170E+00 -6.62803607E-01 -4.87008670E-01
Total Energy                               R      1.048535350000000E-02
Cartesian Gradient                         R   N=          30
  2.82012881E-04  9.65053641E-04  1.18462139E-03 -5.74633493E-04 -1.70200175E-03
 -1.70814307E-03 -2.98634952E-04  1.04755732E-03 -1.27314344E-03  5.88125447E-04
 -1.72896147E-03  1.75343806E-03 -6.99435076E-04  1.22643355E-03 -1.40966936E-03
  6.67752969E-05 -2.16584764E-04  9.33738359E-05  1.20803378E-04 -3.12683192E-04
  3.34793550E-04  7.03252489E-04  1.25151883E-03  1.45249734E-03 -6.70649285E-05
 -2.17203531E-04 -9.34056813E-05 -1.21200236E-04 -3.13128624E-04 -3.34366258E-04
