FCHK created with read_scan from butadiene_scanMM.fchk
Scan      RExternal='gromacs_link.sh  -p joyce.new.top'               ZDO       
Number of atoms                            I               10
Charge                                     I                0
Multiplicity                               I                1
Atomic numbers                             I   N=          10
           6           1           6           1           6           1
           1           6           1           1
Nuclear charges                            R   N=          10
  6.00000000E+00  1.00000000E+00  6.00000000E+00  1.00000000E+00  6.00000000E+00
  1.00000000E+00  1.00000000E+00  6.00000000E+00  1.00000000E+00  1.00000000E+00
Current cartesian coordinates              R   N=          30
  1.22657457E+00  6.33512219E-01  6.36332812E-01  1.32185672E+00  2.46720851E+00
  1.56974313E+00 -1.22697278E+00 -6.15853987E-01  6.53969237E-01 -1.30977798E+00
 -2.44707632E+00  1.59333922E+00 -3.27687389E+00  2.50320803E-01 -5.58214023E-01
 -3.24841305E+00  2.03386200E+00 -1.58066355E+00 -5.05533265E+00 -7.73692612E-01
 -5.44957204E-01  3.27603267E+00 -2.63375852E-01 -5.54044345E-01  3.24018905E+00
 -2.06092440E+00 -1.55142300E+00  5.05891448E+00  7.53003723E-01 -5.54300690E-01
Integer atomic weights                     I   N=          30
           1           0           0           1           2           1
          -1           0           0          -1          -2           1
          -3           0           0          -3           2          -1
          -5           0           0           3           0           0
           3          -2          -1           5           0           0
Real atomic weights                        R   N=          30
  1.22657457E+00  6.33512219E-01  6.36332812E-01  1.32185672E+00  2.46720851E+00
  1.56974313E+00 -1.22697278E+00 -6.15853987E-01  6.53969237E-01 -1.30977798E+00
 -2.44707632E+00  1.59333922E+00 -3.27687389E+00  2.50320803E-01 -5.58214023E-01
 -3.24841305E+00  2.03386200E+00 -1.58066355E+00 -5.05533265E+00 -7.73692612E-01
 -5.44957204E-01  3.27603267E+00 -2.63375852E-01 -5.54044345E-01  3.24018905E+00
 -2.06092440E+00 -1.55142300E+00  5.05891448E+00  7.53003723E-01 -5.54300690E-01
Total Energy                               R      1.104144300000000E-02
Cartesian Gradient                         R   N=          30
  3.85482101E-03 -8.38823047E-03  8.38629556E-03 -8.03383992E-06  7.52038380E-04
 -2.15693900E-03 -3.44957865E-03  8.90210985E-03  8.00991559E-03 -2.43808520E-04
 -8.88703369E-04 -2.19128362E-03  1.38995345E-03 -3.67642649E-03 -5.31998998E-03
  5.46551121E-05 -2.82409940E-05 -2.24923009E-04  1.20589732E-04 -2.08756447E-04
 -4.00598571E-04 -1.54596148E-03  3.30292873E-03 -5.47298882E-03 -5.39797082E-05
  2.77228014E-05 -2.26200855E-04 -1.18660668E-04  2.05565864E-04 -4.03281241E-04
