FCHK created with read_scan from butadiene_scanMM.fchk
Scan      RExternal='gromacs_link.sh  -p joyce.new.top'               ZDO       
Number of atoms                            I               10
Charge                                     I                0
Multiplicity                               I                1
Atomic numbers                             I   N=          10
           6           1           6           1           6           1
           1           6           1           1
Nuclear charges                            R   N=          10
  6.00000000E+00  1.00000000E+00  6.00000000E+00  1.00000000E+00  6.00000000E+00
  1.00000000E+00  1.00000000E+00  6.00000000E+00  1.00000000E+00  1.00000000E+00
Current cartesian coordinates              R   N=          30
  1.37125614E+00  1.09358153E+00 -1.38380416E-01  2.25629406E+00  2.92138554E+00
 -4.82833144E-01 -1.37023294E+00  1.09707867E+00  1.18881575E-01 -2.24395014E+00
  2.91532030E+00  5.35275493E-01 -2.82760938E+00 -9.64873798E-01 -9.61234474E-02
 -2.02348311E+00 -2.81349213E+00 -5.00126516E-01 -4.86666076E+00 -8.76503148E-01
  1.18736263E-01  2.82580310E+00 -9.67381015E-01  1.03530670E-01  2.01443618E+00
 -2.81874457E+00  4.79515240E-01  4.86806227E+00 -8.78398310E-01 -7.80176228E-02
Integer atomic weights                     I   N=          30
           1           1           0           2           2           0
          -1           1           0          -2           2           0
          -2           0           0          -2          -2           0
          -4           0           0           2           0           0
           2          -2           0           4           0           0
Real atomic weights                        R   N=          30
  1.37125614E+00  1.09358153E+00 -1.38380416E-01  2.25629406E+00  2.92138554E+00
 -4.82833144E-01 -1.37023294E+00  1.09707867E+00  1.18881575E-01 -2.24395014E+00
  2.91532030E+00  5.35275493E-01 -2.82760938E+00 -9.64873798E-01 -9.61234474E-02
 -2.02348311E+00 -2.81349213E+00 -5.00126516E-01 -4.86666076E+00 -8.76503148E-01
  1.18736263E-01  2.82580310E+00 -9.67381015E-01  1.03530670E-01  2.01443618E+00
 -2.81874457E+00  4.79515240E-01  4.86806227E+00 -8.78398310E-01 -7.80176228E-02
Total Energy                               R      5.766540620000000E-03
Cartesian Gradient                         R   N=          30
  7.22936150E-04  8.45327160E-04  8.33141269E-03 -1.49097783E-04 -4.09912333E-04
 -1.94905326E-03 -5.10642448E-04  1.07772375E-03 -8.38508624E-03 -1.35451037E-05
 -5.56596520E-04  1.95959246E-03 -2.48230592E-05 -2.04670969E-04  1.61748052E-03
  7.06860287E-05 -1.56310154E-04  1.92365960E-04  4.81407194E-05 -8.06161392E-05
  4.63142466E-04 -3.94932918E-05 -2.78112831E-04 -1.56973263E-03 -6.44308330E-05
 -1.55020014E-04 -1.95252803E-04 -3.97295119E-05 -8.18109450E-05 -4.64873806E-04
