FCHK created with read_scan from butadiene_scanMM.fchk
Scan      RExternal='gromacs_link.sh  -p joyce.new.top'               ZDO       
Number of atoms                            I               10
Charge                                     I                0
Multiplicity                               I                1
Atomic numbers                             I   N=          10
           6           1           6           1           6           1
           1           6           1           1
Nuclear charges                            R   N=          10
  6.00000000E+00  1.00000000E+00  6.00000000E+00  1.00000000E+00  6.00000000E+00
  1.00000000E+00  1.00000000E+00  6.00000000E+00  1.00000000E+00  1.00000000E+00
Current cartesian coordinates              R   N=          30
  1.34001016E+00  1.00363211E+00 -3.24036999E-01  2.07669112E+00  2.72740743E+00
 -1.17772732E+00 -1.33900004E+00  1.00859585E+00  3.12075419E-01 -2.05818442E+00
  2.71547063E+00  1.21325049E+00 -2.93430843E+00 -8.89653527E-01 -2.10848547E-01
 -2.29263644E+00 -2.60990000E+00 -1.13618089E+00 -4.92551464E+00 -7.95087220E-01
  2.76856064E-01  2.93187018E+00 -8.92992105E-01  2.15052792E-01  2.28015780E+00
 -2.61940140E+00  1.12170187E+00  4.92805530E+00 -7.95983372E-01 -2.51356209E-01
Integer atomic weights                     I   N=          30
           1           1           0           2           2          -1
          -1           1           0          -2           2           1
          -2           0           0          -2          -2          -1
          -4           0           0           2           0           0
           2          -2           1           4           0           0
Real atomic weights                        R   N=          30
  1.34001016E+00  1.00363211E+00 -3.24036999E-01  2.07669112E+00  2.72740743E+00
 -1.17772732E+00 -1.33900004E+00  1.00859585E+00  3.12075419E-01 -2.05818442E+00
  2.71547063E+00  1.21325049E+00 -2.93430843E+00 -8.89653527E-01 -2.10848547E-01
 -2.29263644E+00 -2.60990000E+00 -1.13618089E+00 -4.92551464E+00 -7.95087220E-01
  2.76856064E-01  2.93187018E+00 -8.92992105E-01  2.15052792E-01  2.28015780E+00
 -2.61940140E+00  1.12170187E+00  4.92805530E+00 -7.95983372E-01 -2.51356209E-01
Total Energy                               R      6.241825370000000E-03
Cartesian Gradient                         R   N=          30
  2.50899153E-04  5.10805706E-04  1.21196608E-03 -4.35344284E-04 -8.36972791E-04
 -1.78361457E-03 -1.47172751E-04  3.24129384E-04 -7.64169851E-04  3.55027451E-04
 -7.78546623E-04  1.54526612E-03 -5.25107903E-04  8.26266298E-04 -1.80171201E-03
  7.08914111E-05 -1.94624563E-04  1.46178692E-04  9.48794364E-05 -2.03963518E-04
  4.17019090E-04  4.97815619E-04  7.50222387E-04  1.59506784E-03 -6.97822653E-05
 -1.93831049E-04 -1.47447871E-04 -9.21064710E-05 -2.03487853E-04 -4.18552908E-04
