Butadiene MM scan using external keyword in gaussian                    
Scan      RExternal='gromacs_link.sh -p joyce.new.top'                ZDO                 
Number of atoms                            I               10
Info1-9                                    I   N=           9
          22          22           0           0           0         100
           8           8         701
Full Title                                 C   N=           5
Butadiene MM scan using external keyword in gaussian        
Route                                      C   N=           6
# Opt(modredundant,nomicro) External="gromacs_link.sh -p joy
ce.new.top" 
Charge                                     I                0
Multiplicity                               I                1
Number of electrons                        I               30
Number of alpha electrons                  I               15
Number of beta electrons                   I               15
Number of basis functions                  I               26
Number of independent functions            I               26
Number of point charges in /Mol/           I                0
Number of translation vectors              I                0
Atomic numbers                             I   N=          10
           6           1           6           1           6           1
           1           6           1           1
Nuclear charges                            R   N=          10
  6.00000000E+00  1.00000000E+00  6.00000000E+00  1.00000000E+00  6.00000000E+00
  1.00000000E+00  1.00000000E+00  6.00000000E+00  1.00000000E+00  1.00000000E+00
Current cartesian coordinates              R   N=          30
  1.37693261E+00  1.11238003E+00 -1.07764344E-04  2.28785456E+00  2.95981194E+00
  1.78632459E-04 -1.37693813E+00  1.11240273E+00 -1.11903086E-04 -2.28787267E+00
  2.95982963E+00  4.58871143E-04 -2.80535149E+00 -9.80762513E-01  3.20970728E-05
 -1.96487401E+00 -2.85714855E+00 -1.67580034E-04 -4.85569358E+00 -8.92447521E-01
  1.83031521E-04  2.80537115E+00 -9.80784109E-01  3.49324819E-05  1.96479401E+00
 -2.85712492E+00  5.45611466E-05  4.85570688E+00 -8.92337447E-01  2.08311013E-04
Number of symbols in /Mol/                 I                0
Force Field                                I                0
Atom Types                                 C   N=          10
                                                            
                                                            
Int Atom Types                             I   N=          10
           0           0           0           0           0           0
           0           0           0           0
MM charges                                 R   N=          10
  0.00000000E+00  0.00000000E+00  0.00000000E+00  0.00000000E+00  0.00000000E+00
  0.00000000E+00  0.00000000E+00  0.00000000E+00  0.00000000E+00  0.00000000E+00
Integer atomic weights                     I   N=          10
          12           1          12           1          12           1
           1          12           1           1
Real atomic weights                        R   N=          10
  1.20000000E+01  1.00782504E+00  1.20000000E+01  1.00782504E+00  1.20000000E+01
  1.00782504E+00  1.00782504E+00  1.20000000E+01  1.00782504E+00  1.00782504E+00
Atom fragment info                         I   N=          10
           0           0           0           0           0           0
           0           0           0           0
Atom residue num                           I   N=          10
           0           0           0           0           0           0
           0           0           0           0
Nuclear spins                              I   N=          10
           0           1           0           1           0           1
           1           0           1           1
Nuclear ZEff                               R   N=          10
 -3.60000000E+00 -1.00000000E+00 -3.60000000E+00 -1.00000000E+00 -3.60000000E+00
 -1.00000000E+00 -1.00000000E+00 -3.60000000E+00 -1.00000000E+00 -1.00000000E+00
Nuclear ZNuc                               R   N=          10
  6.00000000E+00  1.00000000E+00  6.00000000E+00  1.00000000E+00  6.00000000E+00
  1.00000000E+00  1.00000000E+00  6.00000000E+00  1.00000000E+00  1.00000000E+00
Nuclear QMom                               R   N=          10
  0.00000000E+00  0.00000000E+00  0.00000000E+00  0.00000000E+00  0.00000000E+00
  0.00000000E+00  0.00000000E+00  0.00000000E+00  0.00000000E+00  0.00000000E+00
Nuclear GFac                               R   N=          10
  0.00000000E+00  2.79284600E+00  0.00000000E+00  2.79284600E+00  0.00000000E+00
  2.79284600E+00  2.79284600E+00  0.00000000E+00  2.79284600E+00  2.79284600E+00
MicOpt                                     I   N=          10
          -1          -1          -1          -1          -1          -1
          -1          -1          -1          -1
Number of residues                         I                0
Number of secondary structures             I                0
Redundant internal dimensions              I   N=           4
          33           9          12          12
Redundant internal coordinate indices      I   N=         132
           1           2           0           0           1           3
           0           0           1           8           0           0
           3           4           0           0           3           5
           0           0           5           6           0           0
           5           7           0           0           8           9
           0           0           8          10           0           0
           2           1           3           0           2           1
           8           0           3           1           8           0
           1           3           4           0           1           3
           5           0           4           3           5           0
           3           5           6           0           3           5
           7           0           6           5           7           0
           1           8           9           0           1           8
          10           0           9           8          10           0
           2           1           3           4           2           1
           3           5           8           1           3           4
           8           1           3           5           2           1
           8           9           2           1           8          10
           3           1           8           9           3           1
           8          10           1           3           5           6
           1           3           5           7           4           3
           5           6           4           3           5           7
Redundant internal coordinates             R   N=          33
  2.05980182E+00  2.75387073E+00  2.53412170E+00  2.05980295E+00  2.53410843E+00
  2.05602213E+00  2.05224322E+00  2.05602159E+00  2.05224255E+00  2.02888012E+00
  2.08466399E+00  2.16964118E+00  2.02890315E+00  2.16961624E+00  2.08466585E+00
  2.12163869E+00  2.12657780E+00  2.03496882E+00  2.12157702E+00  2.12652202E+00
  2.03508627E+00 -1.55416002E-04 -3.14136855E+00  3.14121581E+00  2.67308724E-06
  3.14142459E+00 -1.26967030E-04  5.99897487E-05 -3.14149157E+00 -1.89479727E-04
  3.14150077E+00 -3.14139126E+00  2.98987876E-04
ZRed-IntVec                                I   N=          33
           0           0           0           0           0           0
           0           0           0           0           0           0
           0           0           0           0           0           0
           0           0           0           0           0           0
       -1019           0           0           0           0           0
           0           0           0
ZRed-FPVec                                 R   N=          33
  0.00000000E+00  0.00000000E+00  0.00000000E+00  0.00000000E+00  0.00000000E+00
  0.00000000E+00  0.00000000E+00  0.00000000E+00  0.00000000E+00  0.00000000E+00
  0.00000000E+00  0.00000000E+00  0.00000000E+00  0.00000000E+00  0.00000000E+00
  0.00000000E+00  0.00000000E+00  0.00000000E+00  0.00000000E+00  0.00000000E+00
  0.00000000E+00  0.00000000E+00  0.00000000E+00  0.00000000E+00  1.74532925E-01
  0.00000000E+00  0.00000000E+00  0.00000000E+00  0.00000000E+00  0.00000000E+00
  0.00000000E+00  0.00000000E+00  0.00000000E+00
ZRed-Constraint1                           R   N=          33
  2.06069245E+00  2.75426318E+00  2.53328709E+00  2.06069245E+00  2.53328709E+00
  2.05587243E+00  2.05186441E+00  2.05587243E+00  2.05186441E+00  2.02887878E+00
  2.08466764E+00  2.16963889E+00  2.02887878E+00  2.16963889E+00  2.08466764E+00
  2.12137689E+00  2.12636193E+00  2.03544648E+00  2.12137689E+00  2.12636193E+00
  2.03544648E+00  3.14159265E+00  0.00000000E+00  0.00000000E+00  6.28318531E+00
  3.14159265E+00  0.00000000E+00  0.00000000E+00  3.14159265E+00  0.00000000E+00
  3.14159265E+00  3.14159265E+00  0.00000000E+00
ZRed-Constraint2                           R   N=          33
  0.00000000E+00  0.00000000E+00  0.00000000E+00  0.00000000E+00  0.00000000E+00
  0.00000000E+00  0.00000000E+00  0.00000000E+00  0.00000000E+00  0.00000000E+00
  0.00000000E+00  0.00000000E+00  0.00000000E+00  0.00000000E+00  0.00000000E+00
  0.00000000E+00  0.00000000E+00  0.00000000E+00  0.00000000E+00  0.00000000E+00
  0.00000000E+00  0.00000000E+00  0.00000000E+00  0.00000000E+00  3.14159265E+00
  0.00000000E+00  0.00000000E+00  0.00000000E+00  0.00000000E+00  0.00000000E+00
  0.00000000E+00  0.00000000E+00  0.00000000E+00
SymInf integers                            I   N=          26
           1           1           1           1           1           0
           0           0           0           0           0           0
           0           0           0           0           0           0
           0           0           0           0           0           0
           0           0
RotTr to input orientation                 R   N=          12
 -8.55675475E-02  9.96332326E-01 -3.00359701E-04 -7.25912105E-04  2.39122117E-04
  9.99999708E-01  9.96332107E-01  8.55677405E-02  7.02788603E-04 -1.72186912E-04
  3.19839770E-05  1.31617978E-01
Number of contracted shells                I               14
Number of primitive shells                 I               42
Pure/Cartesian d shells                    I                0
Pure/Cartesian f shells                    I                0
Highest angular momentum                   I                1
Largest degree of contraction              I                3
Shell types                                I   N=          14
           0          -1           0           0          -1           0
           0          -1           0           0           0          -1
           0           0
Number of primitives per shell             I   N=          14
           3           3           3           3           3           3
           3           3           3           3           3           3
           3           3
Shell to atom map                          I   N=          14
           1           1           2           3           3           4
           5           5           6           7           8           8
           9          10
Primitive exponents                        R   N=          42
  7.16168373E+01  1.30450963E+01  3.53051216E+00  2.94124936E+00  6.83483096E-01
  2.22289916E-01  3.42525091E+00  6.23913730E-01  1.68855404E-01  7.16168373E+01
  1.30450963E+01  3.53051216E+00  2.94124936E+00  6.83483096E-01  2.22289916E-01
  3.42525091E+00  6.23913730E-01  1.68855404E-01  7.16168373E+01  1.30450963E+01
  3.53051216E+00  2.94124936E+00  6.83483096E-01  2.22289916E-01  3.42525091E+00
  6.23913730E-01  1.68855404E-01  3.42525091E+00  6.23913730E-01  1.68855404E-01
  7.16168373E+01  1.30450963E+01  3.53051216E+00  2.94124936E+00  6.83483096E-01
  2.22289916E-01  3.42525091E+00  6.23913730E-01  1.68855404E-01  3.42525091E+00
  6.23913730E-01  1.68855404E-01
Contraction coefficients                   R   N=          42
  1.54328967E-01  5.35328142E-01  4.44634542E-01 -9.99672292E-02  3.99512826E-01
  7.00115469E-01  1.54328967E-01  5.35328142E-01  4.44634542E-01  1.54328967E-01
  5.35328142E-01  4.44634542E-01 -9.99672292E-02  3.99512826E-01  7.00115469E-01
  1.54328967E-01  5.35328142E-01  4.44634542E-01  1.54328967E-01  5.35328142E-01
  4.44634542E-01 -9.99672292E-02  3.99512826E-01  7.00115469E-01  1.54328967E-01
  5.35328142E-01  4.44634542E-01  1.54328967E-01  5.35328142E-01  4.44634542E-01
  1.54328967E-01  5.35328142E-01  4.44634542E-01 -9.99672292E-02  3.99512826E-01
  7.00115469E-01  1.54328967E-01  5.35328142E-01  4.44634542E-01  1.54328967E-01
  5.35328142E-01  4.44634542E-01
P(S=P) Contraction coefficients            R   N=          42
  0.00000000E+00  0.00000000E+00  0.00000000E+00  1.55916275E-01  6.07683719E-01
  3.91957393E-01  0.00000000E+00  0.00000000E+00  0.00000000E+00  0.00000000E+00
  0.00000000E+00  0.00000000E+00  1.55916275E-01  6.07683719E-01  3.91957393E-01
  0.00000000E+00  0.00000000E+00  0.00000000E+00  0.00000000E+00  0.00000000E+00
  0.00000000E+00  1.55916275E-01  6.07683719E-01  3.91957393E-01  0.00000000E+00
  0.00000000E+00  0.00000000E+00  0.00000000E+00  0.00000000E+00  0.00000000E+00
  0.00000000E+00  0.00000000E+00  0.00000000E+00  1.55916275E-01  6.07683719E-01
  3.91957393E-01  0.00000000E+00  0.00000000E+00  0.00000000E+00  0.00000000E+00
  0.00000000E+00  0.00000000E+00
Coordinates of each shell                  R   N=          42
  1.37693261E+00  1.11238003E+00 -1.07764344E-04  1.37693261E+00  1.11238003E+00
 -1.07764344E-04  2.28785456E+00  2.95981194E+00  1.78632459E-04 -1.37693813E+00
  1.11240273E+00 -1.11903086E-04 -1.37693813E+00  1.11240273E+00 -1.11903086E-04
 -2.28787267E+00  2.95982963E+00  4.58871143E-04 -2.80535149E+00 -9.80762513E-01
  3.20970728E-05 -2.80535149E+00 -9.80762513E-01  3.20970728E-05 -1.96487401E+00
 -2.85714855E+00 -1.67580034E-04 -4.85569358E+00 -8.92447521E-01  1.83031521E-04
  2.80537115E+00 -9.80784109E-01  3.49324819E-05  2.80537115E+00 -9.80784109E-01
  3.49324819E-05  1.96479401E+00 -2.85712492E+00  5.45611466E-05  4.85570688E+00
 -8.92337447E-01  2.08311013E-04
Num ILSW                                   I              100
ILSW                                       I   N=         100
           0           0           0           1           0           0
           0           0           0           0           0          -1
           5           0           0           0           2           0
           0           0           1           0           1           0
           1           0           0           0           0           0
           0           0      100000           0          -1           0
           0           0           0           0           0           0
           0           0           0         100           0           0
           0 -2000000000           1           0           0           0
           0           0           4          52           0           0
           0           0           0           0           0           0
           0           0           0           0           0           1
           0           0           0           0           0           0
           0           0           0           0           0           0
           0           0           0           0           0           0
           0           0           0           0           0           0
           0           0           0           0
Num RLSW                                   I               52
RLSW                                       R   N=          52
  1.00000000E+00  1.00000000E+00  1.00000000E+00  1.00000000E+00  1.00000000E+00
  0.00000000E+00  0.00000000E+00  1.00000000E+00  0.00000000E+00  0.00000000E+00
  0.00000000E+00  0.00000000E+00  1.00000000E+00  0.00000000E+00  0.00000000E+00
  0.00000000E+00  0.00000000E+00  1.00000000E+00  0.00000000E+00  0.00000000E+00
  0.00000000E+00  0.00000000E+00  1.00000000E+00  0.00000000E+00  0.00000000E+00
  0.00000000E+00  0.00000000E+00  1.00000000E+00  0.00000000E+00  0.00000000E+00
  0.00000000E+00  0.00000000E+00  1.00000000E+00  0.00000000E+00  0.00000000E+00
  0.00000000E+00  0.00000000E+00  0.00000000E+00  1.00000000E+00  1.00000000E+00
  0.00000000E+00  1.00000000E+00  0.00000000E+00  0.00000000E+00  0.00000000E+00
  0.00000000E+00  0.00000000E+00  0.00000000E+00  0.00000000E+00  0.00000000E+00
  0.00000000E+00  0.00000000E+00
MxBond                                     I                3
NBond                                      I   N=          10
           3           1           3           1           3           1
           1           3           1           1
IBond                                      I   N=          30
           2           3           8           1           0           0
           1           4           5           3           0           0
           3           6           7           5           0           0
           5           0           0           1           9          10
           8           0           0           8           0           0
RBond                                      R   N=          30
  1.00000000E+00  1.00000000E+00  2.00000000E+00  1.00000000E+00  0.00000000E+00
  0.00000000E+00  1.00000000E+00  1.00000000E+00  2.00000000E+00  1.00000000E+00
  0.00000000E+00  0.00000000E+00  2.00000000E+00  1.00000000E+00  1.00000000E+00
  1.00000000E+00  0.00000000E+00  0.00000000E+00  1.00000000E+00  0.00000000E+00
  0.00000000E+00  2.00000000E+00  1.00000000E+00  1.00000000E+00  1.00000000E+00
  0.00000000E+00  0.00000000E+00  1.00000000E+00  0.00000000E+00  0.00000000E+00
Virial Ratio                               R      0.000000000000000E+00
SCF Energy                                 R      6.230501432270000E-03
Total Energy                               R      6.230501432270000E-03
RMS Force                                  R      4.411499861105055E-05
Job Status                                 I                1
Nuclear derivative order                   I                1
External E-field                           R   N=          35
  0.00000000E+00  0.00000000E+00  0.00000000E+00  0.00000000E+00  0.00000000E+00
  0.00000000E+00  0.00000000E+00  0.00000000E+00  0.00000000E+00  0.00000000E+00
  0.00000000E+00  0.00000000E+00  0.00000000E+00  0.00000000E+00  0.00000000E+00
  0.00000000E+00  0.00000000E+00  0.00000000E+00  0.00000000E+00  0.00000000E+00
  0.00000000E+00  0.00000000E+00  0.00000000E+00  0.00000000E+00  0.00000000E+00
  0.00000000E+00  0.00000000E+00  0.00000000E+00  0.00000000E+00  0.00000000E+00
  0.00000000E+00  0.00000000E+00  0.00000000E+00  0.00000000E+00  0.00000000E+00
IOpCl                                      I                0
IROHF                                      I                0
Grdnt Energy                               R      6.230501432270000E-03
Grdnt NVar                                 I               33
Grdnt IGetFC                               I                0
Internal Forces                            R   N=          33
  1.94977151E-07 -1.46510094E-04  1.05248222E-06 -2.16640476E-07  7.99943383E-06
  2.29267017E-07  2.44893123E-08  5.24594510E-07  4.12819005E-07  8.45864420E-06
 -4.77367941E-06 -3.68415593E-06  4.96946978E-06  1.25385311E-06 -6.22076538E-06
 -2.11415483E-05 -2.65550154E-05  4.76966396E-05 -1.40945918E-05 -2.06677527E-05
  3.47624483E-05  1.22410525E-06 -6.69606813E-06  5.51763664E-06 -2.40253674E-06
  4.55667507E-06  1.43669141E-06  1.33136103E-07 -2.98684756E-06  3.30176389E-06
  2.33904947E-06 -4.85758948E-06 -5.82030390E-06
Internal Force Constants                   R   N=         561
  1.34100664E+00  1.08995083E+00  1.34101450E+00  1.08800049E+00  1.08599929E+00
  1.08800046E+00  1.08599949E+00  1.16237633E+02  1.19218249E+02  1.24279037E+02
  1.16225724E+02  1.24228055E+02  1.19252333E+02  1.21545989E+02  1.21826647E+02
  1.16618032E+02  1.21545906E+02  1.21826345E+02  1.16617985E+02 -1.62272190E+02
  2.40205029E+01  2.37074048E+01 -1.49999902E+02 -1.77272750E+02  3.90257705E+00
 -3.41878790E+00  1.77756539E+02 -3.56701600E+00  1.77582050E+02 -1.77096265E+02
  4.05280055E+00  1.09004202E+00  1.45696067E+00  1.34100637E+00  1.08991582E+00
  1.34101818E+00  1.08799925E+00  1.08599751E+00  1.08799824E+00  1.08599944E+00
  1.16259102E+02  1.19088670E+02  1.24255833E+02  1.16228836E+02  1.24167864E+02
  1.19124830E+02  1.21546070E+02  1.21828192E+02  1.16611944E+02  1.21545090E+02
  1.21826309E+02  1.16611596E+02 -1.55346069E+02  3.26843127E+01  3.19696989E+01
 -1.39999919E+02 -1.76718837E+02  4.83225311E+00 -4.22769511E+00  1.77323395E+02
 -4.51560884E+00  1.76881407E+02 -1.76267949E+02  5.12906683E+00  1.09004207E+00
  1.45700258E+00  1.34100798E+00  1.08989837E+00  1.34102608E+00  1.08800116E+00
  1.08599858E+00  1.08800088E+00  1.08599910E+00  1.16242804E+02  1.19036850E+02
  1.24239734E+02  1.16221442E+02  1.24135458E+02  1.19042929E+02  1.21542013E+02
  1.21823926E+02  1.16613400E+02  1.21543432E+02  1.21824948E+02  1.16614996E+02
 -1.47050240E+02  4.19444048E+01  4.10054829E+01 -1.29999873E+02 -1.76317977E+02
  5.21563435E+00 -4.58356063E+00  1.76950051E+02 -5.11202570E+00  1.76597655E+02
 -1.75880400E+02  5.82928004E+00  1.09002882E+00  1.45697294E+00  1.34100353E+00
  1.08991557E+00  1.34102016E+00  1.08800175E+00  1.08599925E+00  1.08800127E+00
  1.08599932E+00  1.16254195E+02  1.19124311E+02  1.24243050E+02  1.16239420E+02
  1.24147131E+02  1.19074259E+02  1.21544622E+02  1.21826841E+02  1.16609898E+02
  1.21546430E+02  1.21828042E+02  1.16612394E+02 -1.35672051E+02  5.28537386E+01
  5.14742978E+01 -1.19999913E+02 -1.76738488E+02  4.62478171E+00 -4.07627192E+00
  1.77286998E+02 -4.85189513E+00  1.76772079E+02 -1.76100358E+02  5.52361555E+00
  1.08999916E+00  1.45702789E+00  1.34099023E+00  1.08998276E+00  1.34099619E+00
  1.08800074E+00  1.08599938E+00  1.08800041E+00  1.08599942E+00  1.16248544E+02
  1.19375562E+02  1.24269886E+02  1.16241372E+02  1.24240767E+02  1.19308546E+02
  1.21546316E+02  1.21827552E+02  1.16618848E+02  1.21547566E+02  1.21828327E+02
  1.16620374E+02 -1.19089049E+02  6.62212149E+01  6.46898284E+01 -1.09999907E+02
 -1.78280603E+02  2.44615967E+00 -2.17005818E+00  1.78556705E+02 -3.03351121E+00
  1.77981635E+02 -1.77570894E+02  3.44425231E+00  1.08999502E+00  1.45699274E+00
  1.34099577E+00  1.09001206E+00  1.34099398E+00  1.08800053E+00  1.08600032E+00
  1.08800035E+00  1.08600030E+00  1.16244559E+02  1.19458715E+02  1.24296441E+02
  1.16244434E+02  1.24302277E+02  1.19445868E+02  1.21550535E+02  1.21830690E+02
  1.16618514E+02  1.21550616E+02  1.21830591E+02  1.16618778E+02 -1.01195753E+02
  7.98039776E+01  7.90004121E+01 -9.99998571E+01 -1.79923029E+02  1.23049568E-01
 -1.25098051E-01  1.79920981E+02 -5.73323351E-01  1.79618701E+02 -1.79543631E+02
  6.48393437E-01  1.09000121E+00  1.45700756E+00  1.34100108E+00  1.08999519E+00
  1.34100200E+00  1.08800014E+00  1.08600037E+00  1.08800019E+00  1.08600019E+00
  1.16247817E+02  1.19424351E+02  1.24302158E+02  1.16243172E+02  1.24299159E+02
  1.19424085E+02  1.21549251E+02  1.21829092E+02  1.16620535E+02  1.21549331E+02
  1.21829403E+02  1.16620374E+02 -8.60133593E+01  9.18597520E+01  9.21269687E+01
 -8.99999200E+01  1.79144276E+02 -1.21098012E+00  1.05923352E+00 -1.79296022E+02
  1.20528077E+00 -1.79193224E+02  1.79015073E+02 -1.38343132E+00  1.09000877E+00
  1.45697751E+00  1.34100158E+00  1.08998773E+00  1.34100272E+00  1.08799965E+00
  1.08599983E+00  1.08799942E+00  1.08599987E+00  1.16241007E+02  1.19379443E+02
  1.24299433E+02  1.16239105E+02  1.24279510E+02  1.19388669E+02  1.21550023E+02
  1.21830946E+02  1.16615879E+02  1.21550130E+02  1.21830393E+02  1.16616773E+02
 -7.31803325E+01  1.03285751E+02  1.03534046E+02 -7.99998700E+01  1.78481725E+02
 -2.13685736E+00  1.86380274E+00 -1.78754780E+02  2.00883735E+00 -1.78658972E+02
  1.78370766E+02 -2.29704329E+00  1.09000907E+00  1.45702318E+00  1.34100145E+00
  1.08997883E+00  1.34100610E+00  1.08799999E+00  1.08600009E+00  1.08799997E+00
  1.08599978E+00  1.16240321E+02  1.19345131E+02  1.24288222E+02  1.16249256E+02
  1.24279350E+02  1.19364700E+02  1.21547322E+02  1.21826676E+02  1.16622417E+02
  1.21547241E+02  1.21827404E+02  1.16620976E+02 -6.20823648E+01  1.14126106E+02
  1.13791613E+02 -6.99999164E+01  1.78106363E+02 -2.68065469E+00  2.35218616E+00
 -1.78434832E+02  2.15145131E+00 -1.78560800E+02  1.78249415E+02 -2.46283640E+00
  1.09001281E+00  1.45694764E+00  1.34100411E+00  1.08998698E+00  1.34100295E+00
  1.08800065E+00  1.08600031E+00  1.08800072E+00  1.08599988E+00  1.16242716E+02
  1.19321577E+02  1.24289803E+02  1.16244529E+02  1.24287744E+02  1.19390369E+02
  1.21551425E+02  1.21832949E+02  1.16613004E+02  1.21550281E+02  1.21831050E+02
  1.16613642E+02 -5.23369567E+01  1.24434823E+02  1.23228268E+02 -5.99999519E+01
  1.77968308E+02 -2.87501037E+00  2.53073401E+00 -1.78312584E+02  1.83662952E+00
 -1.78772421E+02  1.78513385E+02 -2.09566488E+00  1.09001352E+00  1.45708916E+00
  1.34100433E+00  1.08999770E+00  1.34100324E+00  1.08800055E+00  1.08600015E+00
  1.08800052E+00  1.08600045E+00  1.16244585E+02  1.19329751E+02  1.24289766E+02
  1.16249061E+02  1.24296603E+02  1.19419959E+02  1.21543013E+02  1.21819882E+02
  1.16635944E+02  1.21543107E+02  1.21822135E+02  1.16630121E+02 -4.35682577E+01
  1.34279836E+02  1.32151846E+02 -5.00000604E+01  1.78035839E+02 -2.77404480E+00
  2.43919255E+00 -1.78370691E+02  1.22383831E+00 -1.79181429E+02  1.79008069E+02
 -1.39719830E+00  1.09000887E+00  1.45690511E+00  1.34100193E+00  1.08999704E+00
  1.34100531E+00  1.08799990E+00  1.08600007E+00  1.08800009E+00  1.08600069E+00
  1.16252627E+02  1.19354690E+02  1.24286533E+02  1.16254035E+02  1.24307163E+02
  1.19432393E+02  1.21558396E+02  1.21840942E+02  1.16600442E+02  1.21554592E+02
  1.21837399E+02  1.16604412E+02 -3.52885733E+01  1.43782208E+02  1.40929181E+02
 -4.00000369E+01  1.78259194E+02 -2.45432317E+00  2.15117935E+00 -1.78562338E+02
  5.30631633E-01 -1.79645728E+02  1.79573772E+02 -6.02588181E-01  1.09000565E+00
  1.45694341E+00  1.34100152E+00  1.08999776E+00  1.34099601E+00  1.08800015E+00
  1.08600055E+00  1.08800017E+00  1.08600007E+00  1.16247575E+02  1.19381251E+02
  1.24299559E+02  1.16247257E+02  1.24311055E+02  1.19441532E+02  1.21547164E+02
  1.21828051E+02  1.16624778E+02  1.21548247E+02  1.21826774E+02  1.16622487E+02
 -2.70378633E+01  1.53106613E+02  1.49855655E+02 -2.99998689E+01  1.78580148E+02
 -2.01357053E+00  1.77769293E+00 -1.78816026E+02 -9.11423092E-02  1.79942268E+02
 -1.79942347E+02  9.10642354E-02  1.09000324E+00  1.45710829E+00  1.34100171E+00
  1.08999822E+00  1.34100451E+00  1.08800009E+00  1.08600065E+00  1.08800014E+00
  1.08600009E+00  1.16249908E+02  1.19407661E+02  1.24304195E+02  1.16252548E+02
  1.24306703E+02  1.19436556E+02  1.21556422E+02  1.21835500E+02  1.16607918E+02
  1.21552149E+02  1.21835591E+02  1.16610936E+02 -1.84817163E+01  1.62269827E+02
  1.59248573E+02 -1.99998838E+01  1.78962751E+02 -1.47006688E+00  1.29952432E+00
 -1.79133294E+02 -4.37600205E-01  1.79713043E+02 -1.79663660E+02  4.86983297E-01
  1.09000140E+00  1.45678170E+00  1.34099963E+00  1.09000033E+00  1.34099885E+00
  1.08799991E+00  1.08600034E+00  1.08799989E+00  1.08600052E+00  1.16254221E+02
  1.19429274E+02  1.24305263E+02  1.16249397E+02  1.24308525E+02  1.19438718E+02
  1.21539871E+02  1.21820566E+02  1.16639444E+02  1.21545136E+02  1.21820554E+02
  1.16633934E+02 -9.44190682E+00  1.71230821E+02  1.69327445E+02 -9.99982733E+00
  1.79433929E+02 -7.96779486E-01  7.01146948E-01 -1.79529561E+02 -3.84258152E-01
  1.79745451E+02 -1.79691449E+02  4.38261112E-01  1.09000018E+00  1.45728563E+00
  1.34099945E+00  1.09000078E+00  1.34099243E+00  1.08800005E+00  1.08600035E+00
  1.08799977E+00  1.08599999E+00  1.16246268E+02  1.19442448E+02  1.24311282E+02
  1.16247588E+02  1.24309854E+02  1.19442555E+02  1.21560942E+02  1.21843933E+02
  1.16595125E+02  1.21557409E+02  1.21840737E+02  1.16601854E+02 -8.90468097E-03
 -1.79987160E+02 -1.80021592E+02  1.53156617E-04  1.79990371E+02 -7.27467484E-03
  3.43715941E-03 -1.79994208E+02 -1.08563887E-02 -1.80005264E+02  1.80011539E+02
  1.71307434E-02 -9.05926574E-05  1.93282440E-04  1.05027281E-03  2.47423333E-03
  4.41539862E-03  6.72935770E-03  9.11794409E-03  1.10414430E-02  1.19009426E-02
  1.16142342E-02  1.04853535E-02  8.93877249E-03  7.40910143E-03  6.24182537E-03
  5.61624542E-03  5.51815400E-03  5.76654062E-03  6.08818224E-03  6.23050143E-03
  4.94382838E-04 -1.55581990E-04 -1.27787145E-04  1.93003309E-04  8.05474060E-04
 -3.01751873E-04  3.20541176E-03  2.09818583E-03  7.61552199E-04  5.85290862E-04
 -7.14272616E-04 -8.90533953E-04  7.40555779E-04  3.79194645E-03 -2.91450050E-03
  2.88875125E-02
Optimization MaxStp                        I              100
Optimization Job offset                    I                0
Optimization Num results per geometry      I                2
Optimization Num geometry variables        I               30
Opt point       1 Results for each geome   R   N=           2
 -9.05926574E-05  0.00000000E+00
Opt point       1 Geometries               R   N=          30
 -6.16188667E-01  1.23158554E+00  0.00000000E+00 -2.67684619E+00  1.21958767E+00
  0.00000000E+00  6.16188667E-01 -1.23158554E+00  0.00000000E+00  2.67684619E+00
 -1.21958767E+00  0.00000000E+00 -6.16188667E-01 -3.44490647E+00  0.00000000E+00
 -2.67020191E+00 -3.53231954E+00  0.00000000E+00  3.80433994E-01 -5.23847577E+00
  0.00000000E+00  6.16188667E-01  3.44490647E+00  0.00000000E+00  2.67020191E+00
  3.53231954E+00  0.00000000E+00 -3.80433994E-01  5.23847577E+00  0.00000000E+00
Opt point       1 Gradient at each geome   R   N=          30