FCHK created with read_scan from butadiene_scanMM.fchk
Scan      RExternal='gromacs_link.sh  -p joyce.new.top'               ZDO       
Number of atoms                            I               10
Charge                                     I                0
Multiplicity                               I                1
Atomic numbers                             I   N=          10
           6           1           6           1           6           1
           1           6           1           1
Nuclear charges                            R   N=          10
  6.00000000E+00  1.00000000E+00  6.00000000E+00  1.00000000E+00  6.00000000E+00
  1.00000000E+00  1.00000000E+00  6.00000000E+00  1.00000000E+00  1.00000000E+00
Current cartesian coordinates              R   N=          30
  1.30634334E+00  9.07254592E-01 -4.35147342E-01  1.87161654E+00  2.49217582E+00
 -1.62314719E+00 -1.30635473E+00  9.08206251E-01  4.33691279E-01 -1.86849408E+00
  2.48905913E+00  1.62848033E+00 -3.03999145E+00 -8.07220129E-01 -2.54532924E-01
 -2.56465471E+00 -2.38173088E+00 -1.48830655E+00 -4.98063027E+00 -7.09696903E-01
  4.05853647E-01  3.03970134E+00 -8.07674080E-01  2.54984263E-01  2.56274360E+00
 -2.38401542E+00  1.48579118E+00  4.98122789E+00 -7.09191566E-01 -4.02643069E-01
Integer atomic weights                     I   N=          30
           1           0           0           1           2          -1
          -1           0           0          -1           2           1
          -3           0           0          -2          -2          -1
          -4           0           0           3           0           0
           2          -2           1           4           0           0
Real atomic weights                        R   N=          30
  1.30634334E+00  9.07254592E-01 -4.35147342E-01  1.87161654E+00  2.49217582E+00
 -1.62314719E+00 -1.30635473E+00  9.08206251E-01  4.33691279E-01 -1.86849408E+00
  2.48905913E+00  1.62848033E+00 -3.03999145E+00 -8.07220129E-01 -2.54532924E-01
 -2.56465471E+00 -2.38173088E+00 -1.48830655E+00 -4.98063027E+00 -7.09696903E-01
  4.05853647E-01  3.03970134E+00 -8.07674080E-01  2.54984263E-01  2.56274360E+00
 -2.38401542E+00  1.48579118E+00  4.98122789E+00 -7.09191566E-01 -4.02643069E-01
Total Energy                               R      8.938772490000000E-03
Cartesian Gradient                         R   N=          30
 -2.82222496E-04  1.72027253E-04 -5.35836566E-04 -5.67494488E-04 -1.37864633E-03
 -1.78896580E-03  2.67093932E-04  6.00131956E-06  6.86187001E-04  5.80934038E-04
 -1.31555421E-03  1.71835374E-03 -9.35116982E-04  1.76136111E-03 -2.48625635E-03
  6.80980889E-05 -2.11130741E-04  1.12596343E-04  1.13945539E-04 -2.78153142E-04
  3.66411161E-04  9.37989111E-04  1.73312959E-03  2.40545378E-03 -6.85197376E-05
 -2.11003763E-04 -1.11828225E-04 -1.14707409E-04 -2.78030194E-04 -3.66122940E-04
