FCHK created with read_scan from butadiene_scanMM.fchk
Scan      RExternal='gromacs_link.sh  -p joyce.new.top'               ZDO       
Number of atoms                            I               10
Charge                                     I                0
Multiplicity                               I                1
Atomic numbers                             I   N=          10
           6           1           6           1           6           1
           1           6           1           1
Nuclear charges                            R   N=          10
  6.00000000E+00  1.00000000E+00  6.00000000E+00  1.00000000E+00  6.00000000E+00
  1.00000000E+00  1.00000000E+00  6.00000000E+00  1.00000000E+00  1.00000000E+00
Current cartesian coordinates              R   N=          30
  1.32400342E+00  9.58906217E-01 -3.80772862E-01  1.98198614E+00  2.62287702E+00
 -1.40113640E+00 -1.32357754E+00  9.62012504E-01  3.74602484E-01 -1.97029029E+00
  2.61415324E+00  1.42096494E+00 -2.98456453E+00 -8.51752200E-01 -2.36287081E-01
 -2.42083444E+00 -2.50674604E+00 -1.31815369E+00 -4.95272568E+00 -7.54810936E-01
  3.36989539E-01  2.98316034E+00 -8.53749172E-01  2.38336296E-01  2.41326739E+00
 -2.51346560E+00  1.30968850E+00  4.95446677E+00 -7.54511773E-01 -3.23625911E-01
Integer atomic weights                     I   N=          30
           1           0           0           1           2          -1
          -1           0           0          -1           2           1
          -2           0           0          -2          -2          -1
          -4           0           0           2           0           0
           2          -2           1           4           0           0
Real atomic weights                        R   N=          30
  1.32400342E+00  9.58906217E-01 -3.80772862E-01  1.98198614E+00  2.62287702E+00
 -1.40113640E+00 -1.32357754E+00  9.62012504E-01  3.74602484E-01 -1.97029029E+00
  2.61415324E+00  1.42096494E+00 -2.98456453E+00 -8.51752200E-01 -2.36287081E-01
 -2.42083444E+00 -2.50674604E+00 -1.31815369E+00 -4.95272568E+00 -7.54810936E-01
  3.36989539E-01  2.98316034E+00 -8.53749172E-01  2.38336296E-01  2.41326739E+00
 -2.51346560E+00  1.30968850E+00  4.95446677E+00 -7.54511773E-01 -3.23625911E-01
Total Energy                               R      7.409101430000000E-03
Cartesian Gradient                         R   N=          30
 -1.89841711E-04  1.50974241E-04 -4.96043969E-04 -5.14510249E-04 -1.07687320E-03
 -1.79482494E-03  2.35589191E-04 -1.00390499E-04  8.52337172E-04  4.80246249E-04
 -9.89028363E-04  1.61249813E-03 -8.30702478E-04  1.48077724E-03 -2.58795997E-03
  7.30161823E-05 -2.02363188E-04  1.29800097E-04  1.06150479E-04 -2.38219457E-04
  3.95779440E-04  8.17714407E-04  1.41619363E-03  2.41387869E-03 -7.20557825E-05
 -2.02032641E-04 -1.29341967E-04 -1.05604069E-04 -2.39037762E-04 -3.96116034E-04
