FCHK created with read_scan from butadiene_scanMM.fchk
Scan      RExternal='gromacs_link.sh  -p joyce.new.top'               ZDO       
Number of atoms                            I               10
Charge                                     I                0
Multiplicity                               I                1
Atomic numbers                             I   N=          10
           6           1           6           1           6           1
           1           6           1           1
Nuclear charges                            R   N=          10
  6.00000000E+00  1.00000000E+00  6.00000000E+00  1.00000000E+00  6.00000000E+00
  1.00000000E+00  1.00000000E+00  6.00000000E+00  1.00000000E+00  1.00000000E+00
Current cartesian coordinates              R   N=          30
  1.37513500E+00  1.10755479E+00 -7.05229378E-02  2.28002191E+00  2.94999043E+00
 -2.41997712E-01 -1.37478081E+00  1.10866365E+00  5.80137127E-02 -2.27588285E+00
  2.94811064E+00  2.75348961E-01 -2.81053319E+00 -9.76750280E-01 -4.89015604E-02
 -1.97882989E+00 -2.84566044E+00 -2.55469497E-01 -4.85785009E+00 -8.87798509E-01
  6.19286683E-02  2.80989418E+00 -9.77587875E-01  5.36570835E-02  1.97600343E+00
 -2.84738288E+00  2.42650661E-01  4.85824640E+00 -8.88540911E-01 -3.59388692E-02
Integer atomic weights                     I   N=          30
           1           1           0           2           2           0
          -1           1           0          -2           2           0
          -2           0           0          -1          -2           0
          -4           0           0           2           0           0
           1          -2           0           4           0           0
Real atomic weights                        R   N=          30
  1.37513500E+00  1.10755479E+00 -7.05229378E-02  2.28002191E+00  2.94999043E+00
 -2.41997712E-01 -1.37478081E+00  1.10866365E+00  5.80137127E-02 -2.27588285E+00
  2.94811064E+00  2.75348961E-01 -2.81053319E+00 -9.76750280E-01 -4.89015604E-02
 -1.97882989E+00 -2.84566044E+00 -2.55469497E-01 -4.85785009E+00 -8.87798509E-01
  6.19286683E-02  2.80989418E+00 -9.77587875E-01  5.36570835E-02  1.97600343E+00
 -2.84738288E+00  2.42650661E-01  4.85824640E+00 -8.88540911E-01 -3.59388692E-02
Total Energy                               R      6.088182240000000E-03
Cartesian Gradient                         R   N=          30
  3.51326938E-04  5.17057879E-04  8.63237155E-03 -3.36752645E-05 -2.92342469E-04
 -2.03939332E-03 -1.33823295E-04  7.77837156E-04 -9.04025424E-03 -1.24984997E-04
 -4.62406798E-04  2.24286102E-03 -9.91852120E-05 -4.66556773E-05  1.75597360E-03
  5.95508331E-05 -1.42615639E-04  2.06551458E-04  2.74146269E-05 -4.53526375E-05
  4.69247504E-04  2.87767217E-05 -1.19311684E-04 -1.54681405E-03 -5.54131527E-05
 -1.40733336E-04 -2.09971812E-04 -1.99875017E-05 -4.54765925E-05 -4.70553568E-04
