 Entering Gaussian System, Link 0=g16
 Initial command:
 /opt/Gaussian/G16.A01_avx2//g16/l1.exe "/scratch/sonatak/Gau-27158.inp" -scrdir="/scratch/sonatak/"
 Entering Link 1 = /opt/Gaussian/G16.A01_avx2//g16/l1.exe PID=     27160.
  
 Copyright (c) 1988,1990,1992,1993,1995,1998,2003,2009,2016,
            Gaussian, Inc.  All Rights Reserved.
  
 This is part of the Gaussian(R) 16 program.  It is based on
 the Gaussian(R) 09 system (copyright 2009, Gaussian, Inc.),
 the Gaussian(R) 03 system (copyright 2003, Gaussian, Inc.),
 the Gaussian(R) 98 system (copyright 1998, Gaussian, Inc.),
 the Gaussian(R) 94 system (copyright 1995, Gaussian, Inc.),
 the Gaussian 92(TM) system (copyright 1992, Gaussian, Inc.),
 the Gaussian 90(TM) system (copyright 1990, Gaussian, Inc.),
 the Gaussian 88(TM) system (copyright 1988, Gaussian, Inc.),
 the Gaussian 86(TM) system (copyright 1986, Carnegie Mellon
 University), and the Gaussian 82(TM) system (copyright 1983,
 Carnegie Mellon University). Gaussian is a federally registered
 trademark of Gaussian, Inc.
  
 This software contains proprietary and confidential information,
 including trade secrets, belonging to Gaussian, Inc.
  
 This software is provided under written license and may be
 used, copied, transmitted, or stored only in accord with that
 written license.
  
 The following legend is applicable only to US Government
 contracts under FAR:
  
                    RESTRICTED RIGHTS LEGEND
  
 Use, reproduction and disclosure by the US Government is
 subject to restrictions as set forth in subparagraphs (a)
 and (c) of the Commercial Computer Software - Restricted
 Rights clause in FAR 52.227-19.
  
 Gaussian, Inc.
 340 Quinnipiac St., Bldg. 40, Wallingford CT 06492
  
  
 ---------------------------------------------------------------
 Warning -- This program may not be used in any manner that
 competes with the business of Gaussian, Inc. or will provide
 assistance to any competitor of Gaussian, Inc.  The licensee
 of this program is prohibited from giving any competitor of
 Gaussian, Inc. access to this program.  By using this program,
 the user acknowledges that Gaussian, Inc. is engaged in the
 business of creating and licensing software in the field of
 computational chemistry and represents and warrants to the
 licensee that it is not a competitor of Gaussian, Inc. and that
 it will not use this program in any manner prohibited above.
 ---------------------------------------------------------------
  

 Cite this work as:
 Gaussian 16, Revision A.03,
 M. J. Frisch, G. W. Trucks, H. B. Schlegel, G. E. Scuseria, 
 M. A. Robb, J. R. Cheeseman, G. Scalmani, V. Barone, 
 G. A. Petersson, H. Nakatsuji, X. Li, M. Caricato, A. V. Marenich, 
 J. Bloino, B. G. Janesko, R. Gomperts, B. Mennucci, H. P. Hratchian, 
 J. V. Ortiz, A. F. Izmaylov, J. L. Sonnenberg, D. Williams-Young, 
 F. Ding, F. Lipparini, F. Egidi, J. Goings, B. Peng, A. Petrone, 
 T. Henderson, D. Ranasinghe, V. G. Zakrzewski, J. Gao, N. Rega, 
 G. Zheng, W. Liang, M. Hada, M. Ehara, K. Toyota, R. Fukuda, 
 J. Hasegawa, M. Ishida, T. Nakajima, Y. Honda, O. Kitao, H. Nakai, 
 T. Vreven, K. Throssell, J. A. Montgomery, Jr., J. E. Peralta, 
 F. Ogliaro, M. J. Bearpark, J. J. Heyd, E. N. Brothers, K. N. Kudin, 
 V. N. Staroverov, T. A. Keith, R. Kobayashi, J. Normand, 
 K. Raghavachari, A. P. Rendell, J. C. Burant, S. S. Iyengar, 
 J. Tomasi, M. Cossi, J. M. Millam, M. Klene, C. Adamo, R. Cammi, 
 J. W. Ochterski, R. L. Martin, K. Morokuma, O. Farkas, 
 J. B. Foresman, and D. J. Fox, Gaussian, Inc., Wallingford CT, 2016.
 
 ******************************************
 Gaussian 16:  ES64L-G16RevA.03 25-Dec-2016
                14-May-2019 
 ******************************************
 %mem=2gb
 %nproc=2
 Will use up to    2 processors via shared memory.
 %chk=butadiene_scanMM.chk
 ----------------------------------------------------------------------
 # Opt(modredundant,nomicro) External="gromacs_link.sh -p joyce.new.top
 "
 ----------------------------------------------------------------------
 1/18=120,19=15,26=1,38=1/1,3;
 2/9=110,12=2,17=6,18=5,40=1/2;
 3/11=9,25=1,30=1,41=9900000,43=2,71=1/1;
 4/20=17,22=1,24=3,113=1,114=1/2;
 6/7=2,8=2,9=2,10=2/1;
 7/44=-1/16;
 1/18=20,19=15,26=1/3(2);
 2/9=110/2;
 99//99;
 2/9=110/2;
 3/11=9,25=1,30=1,41=9900000,43=2,71=1/1;
 4/16=2,20=17,22=1,24=3,113=1,114=1/2;
 7/44=-1/16;
 1/18=20,19=15,26=1/3(-4);
 2/9=110/2;
 6/7=2,8=2,9=2,10=2/1;
 99//99;
 ----------------------------------------------------
 Butadiene MM scan using external keyword in gaussian
 ----------------------------------------------------
 Symbolic Z-matrix:
 Charge =  0 Multiplicity = 1
 C                    -0.32607   0.65173   0. 
 H                    -1.41653   0.64538   0. 
 C                     0.32607  -0.65173   0. 
 H                     1.41653  -0.64538   0. 
 C                    -0.32607  -1.82297   0. 
 H                    -1.41301  -1.86922   0. 
 H                     0.20132  -2.77208   0. 
 C                     0.32607   1.82297   0. 
 H                     1.41301   1.86922   0. 
 H                    -0.20132   2.77208   0. 
 
 The following ModRedundant input section has been read:
 D       8       1       3       5 S  18 10.000                                
 

 GradGradGradGradGradGradGradGradGradGradGradGradGradGradGradGradGradGrad
 Berny optimization.
 Initialization pass.
                           ----------------------------
                           !    Initial Parameters    !
                           ! (Angstroms and Degrees)  !
 --------------------------                            --------------------------
 ! Name  Definition              Value          Derivative Info.                !
 --------------------------------------------------------------------------------
 ! R1    R(1,2)                  1.0905         estimate D2E/DX2                !
 ! R2    R(1,3)                  1.4575         estimate D2E/DX2                !
 ! R3    R(1,8)                  1.3406         estimate D2E/DX2                !
 ! R4    R(3,4)                  1.0905         estimate D2E/DX2                !
 ! R5    R(3,5)                  1.3406         estimate D2E/DX2                !
 ! R6    R(5,6)                  1.0879         estimate D2E/DX2                !
 ! R7    R(5,7)                  1.0858         estimate D2E/DX2                !
 ! R8    R(8,9)                  1.0879         estimate D2E/DX2                !
 ! R9    R(8,10)                 1.0858         estimate D2E/DX2                !
 ! A1    A(2,1,3)              116.2462         estimate D2E/DX2                !
 ! A2    A(2,1,8)              119.4427         estimate D2E/DX2                !
 ! A3    A(3,1,8)              124.3112         estimate D2E/DX2                !
 ! A4    A(1,3,4)              116.2462         estimate D2E/DX2                !
 ! A5    A(1,3,5)              124.3112         estimate D2E/DX2                !
 ! A6    A(4,3,5)              119.4427         estimate D2E/DX2                !
 ! A7    A(3,5,6)              121.5459         estimate D2E/DX2                !
 ! A8    A(3,5,7)              121.8316         estimate D2E/DX2                !
 ! A9    A(6,5,7)              116.6225         estimate D2E/DX2                !
 ! A10   A(1,8,9)              121.5459         estimate D2E/DX2                !
 ! A11   A(1,8,10)             121.8316         estimate D2E/DX2                !
 ! A12   A(9,8,10)             116.6225         estimate D2E/DX2                !
 ! D1    D(2,1,3,4)            180.0            estimate D2E/DX2                !
 ! D2    D(2,1,3,5)              0.0            estimate D2E/DX2                !
 ! D3    D(8,1,3,4)              0.0            estimate D2E/DX2                !
 ! D4    D(8,1,3,5)            180.0            Scan                            !
 ! D5    D(2,1,8,9)            180.0            estimate D2E/DX2                !
 ! D6    D(2,1,8,10)             0.0            estimate D2E/DX2                !
 ! D7    D(3,1,8,9)              0.0            estimate D2E/DX2                !
 ! D8    D(3,1,8,10)           180.0            estimate D2E/DX2                !
 ! D9    D(1,3,5,6)              0.0            estimate D2E/DX2                !
 ! D10   D(1,3,5,7)            180.0            estimate D2E/DX2                !
 ! D11   D(4,3,5,6)            180.0            estimate D2E/DX2                !
 ! D12   D(4,3,5,7)              0.0            estimate D2E/DX2                !
 --------------------------------------------------------------------------------
 Trust Radius=3.00D-01 FncErr=1.00D-07 GrdErr=1.00D-07 EigMax=2.50D+02 EigMin=1.00D-04
 Number of optimizations in scan=  19
 Number of steps in this run=     43 maximum allowed number of steps=    100.
 GradGradGradGradGradGradGradGradGradGradGradGradGradGradGradGradGradGrad

                          Input orientation:                          
 ---------------------------------------------------------------------
 Center     Atomic      Atomic             Coordinates (Angstroms)
 Number     Number       Type             X           Y           Z
 ---------------------------------------------------------------------
      1          6           0       -0.326073    0.651727    0.000000
      2          1           0       -1.416526    0.645378    0.000000
      3          6           0        0.326073   -0.651727    0.000000
      4          1           0        1.416526   -0.645378    0.000000
      5          6           0       -0.326073   -1.822966    0.000000
      6          1           0       -1.413010   -1.869223    0.000000
      7          1           0        0.201317   -2.772082    0.000000
      8          6           0        0.326073    1.822966    0.000000
      9          1           0        1.413010    1.869223    0.000000
     10          1           0       -0.201317    2.772082    0.000000
 ---------------------------------------------------------------------
                    Distance matrix (angstroms):
                    1          2          3          4          5
     1  C    0.000000
     2  H    1.090471   0.000000
     3  C    1.457493   2.172356   0.000000
     4  H    2.172356   3.113235   1.090471   0.000000
     5  C    2.474693   2.698483   1.340558   2.103180   0.000000
     6  H    2.745291   2.514603   2.122900   3.082867   1.087921
     7  H    3.464189   3.781065   2.124022   2.449409   1.085800
     8  C    1.340558   2.103180   2.474693   2.698483   3.703797
     9  H    2.122900   3.082867   2.745291   2.514603   4.081258
    10  H    2.124022   2.449409   3.464189   3.781065   4.596741
                    6          7          8          9         10
     6  H    0.000000
     7  H    1.849650   0.000000
     8  C    4.081258   4.596741   0.000000
     9  H    4.686402   4.796865   1.087921   0.000000
    10  H    4.796865   5.558765   1.085800   1.849650   0.000000
 Stoichiometry    C4H6
 Framework group  C2H[SGH(C4H6)]
 Deg. of freedom     9
 Full point group                 C2H     NOp   4
 Largest Abelian subgroup         C2H     NOp   4
 Largest concise Abelian subgroup C2      NOp   2
                         Standard orientation:                         
 ---------------------------------------------------------------------
 Center     Atomic      Atomic             Coordinates (Angstroms)
 Number     Number       Type             X           Y           Z
 ---------------------------------------------------------------------
      1          6           0       -0.326073    0.651727    0.000000
      2          1           0       -1.416526    0.645378    0.000000
      3          6           0        0.326073   -0.651727    0.000000
      4          1           0        1.416526   -0.645378    0.000000
      5          6           0       -0.326073   -1.822966    0.000000
      6          1           0       -1.413010   -1.869223    0.000000
      7          1           0        0.201317   -2.772082    0.000000
      8          6           0        0.326073    1.822966    0.000000
      9          1           0        1.413010    1.869223    0.000000
     10          1           0       -0.201317    2.772082    0.000000
 ---------------------------------------------------------------------
 Rotational constants (GHZ):          42.3101715           4.4087169           3.9926800
 Standard basis: STO-3G (5D, 7F)
 There are    11 symmetry adapted cartesian basis functions of AG  symmetry.
 There are     2 symmetry adapted cartesian basis functions of BG  symmetry.
 There are     2 symmetry adapted cartesian basis functions of AU  symmetry.
 There are    11 symmetry adapted cartesian basis functions of BU  symmetry.
 There are    11 symmetry adapted basis functions of AG  symmetry.
 There are     2 symmetry adapted basis functions of BG  symmetry.
 There are     2 symmetry adapted basis functions of AU  symmetry.
 There are    11 symmetry adapted basis functions of BU  symmetry.
    26 basis functions,    78 primitive gaussians,    26 cartesian basis functions
    15 alpha electrons       15 beta electrons
       nuclear repulsion energy       103.5476379238 Hartrees.
 NAtoms=   10 NActive=   10 NUniq=    5 SFac= 4.00D+00 NAtFMM=   60 NAOKFM=F Big=F
 Integral buffers will be    131072 words long.
 Raffenetti 1 integral format.
 Two-electron integral symmetry is turned on.
 External calculation of energy and first derivatives.
 Running external command "gromacs_link.sh -p joyce.new.top R"
         input file       "/scratch/sonatak/Gau-27160.EIn"
         output file      "/scratch/sonatak/Gau-27160.EOu"
         message file     "/scratch/sonatak/Gau-27160.EMs"
         fchk file        "/scratch/sonatak/Gau-27160.EFC"
         mat. el file     "/scratch/sonatak/Gau-27160.EUF"

 ExternalExternalExternalExternalExternalExternalExternalExternalExternalExternal
 Output from external command:
 "gromacs_link.sh -p joyce.new.top R /scratch/sonatak/Gau-27160.EIn /scratch/sonatak/Gau-27160.EOu /scratch/sonatak/Gau-27160.EMs /scratch/sonatak/Gau-27160.EFC /scratch/sonatak/Gau-27160.EUF"
 gmxMM   grofile_R: gaussian
 gmxMM   grofile_M: gaussian
 gmxMM   grofile_S: gaussian
 gmxMM  GROMACS PARAMETERS
 gmxMM   mdpfile = SinglePoint_Gau-27160_tmp.mdp
 gmxMM   mdpfile_nm = NormalModes_Gau-27160_tmp.mdp
 gmxMM   mdpfile_min = Minim_Gau-27160_tmp.mdp
 gmxMM   topfile = joyce.new.top
 gmxMM   struct file = Gau-27160_tmp_R.trr
 gmxMM   save_intermediate = false
 gmxMM   nproc_gmx = 1
 gmxMM   job_type = SinglePoint
  
 gmxMM  GAUSSIAN INTERFACE
 gmxMM   Layer: R
 gmxMM   Gaussian input /scratch/sonatak/Gau-27160.EIn
 gmxMM   Gaussian output /scratch/sonatak/Gau-27160.EOu
 gmxMM   Gaussian message /scratch/sonatak/Gau-27160.EMs
  
 gmxMM   Number of gmx atoms mapping gaussian atoms 10
  
 gmxMM  GROMACS Energy"
 gmxMM     -0.237851  (KJ/mol)"
 gmxMM  GROMACS Dipole"
 gmxMM     ( -1.66881902e-17 , -4.62420697e-17 , 0.00000000e+00 )  (Debye)"
  
 gmxMM  Max force    0.00074 au (36.955    KJ/mol * nm-1) on atom     3
  
 gmxMM  The output file for Gaussian has been updated
  
 ExternalExternalExternalExternalExternalExternalExternalExternalExternalExternal

 Recovered energy=-0.905926573841E-04 dipole=     -0.000000000000     -0.000000000000      0.000000000000
 Energy=   -9.059265738E-05 NIter=   0.
 Dipole moment=      -0.000000      -0.000000       0.000000
 ***** Axes restored to original set *****
 -------------------------------------------------------------------
 Center     Atomic                   Forces (Hartrees/Bohr)
 Number     Number              X              Y              Z
 -------------------------------------------------------------------
      1        6          -0.000418855   -0.000615905    0.000000000
      2        1           0.000309688    0.000008564   -0.000000000
      3        6           0.000418855    0.000615905    0.000000000
      4        1          -0.000309688   -0.000008564   -0.000000000
      5        6          -0.000227346   -0.000248479   -0.000000000
      6        1          -0.000053471   -0.000009024   -0.000000000
      7        1           0.000065971   -0.000119561    0.000000000
      8        6           0.000227346    0.000248479   -0.000000000
      9        1           0.000053471    0.000009024   -0.000000000
     10        1          -0.000065971    0.000119561    0.000000000
 -------------------------------------------------------------------
 Cartesian Forces:  Max     0.000615905 RMS     0.000228878

 GradGradGradGradGradGradGradGradGradGradGradGradGradGradGradGradGradGrad
 Berny optimization.
 FormGI is forming the generalized inverse of G from B-inverse, IUseBI=4.
 Internal  Forces:  Max     0.000433956 RMS     0.000143144
 Search for a local minimum.
 Step number   1 out of a maximum of   43 on scan point     1 out of    19
 All quantities printed in internal units (Hartrees-Bohrs-Radians)
 Mixed Optimization -- En-DIIS/RFO-DIIS
 Second derivative matrix not updated -- first step.
 ITU=  0
     Eigenvalues ---    0.01732   0.02124   0.02875   0.02875   0.02875
     Eigenvalues ---    0.02875   0.16000   0.16000   0.16000   0.16000
     Eigenvalues ---    0.16000   0.16000   0.22000   0.22000   0.34758
     Eigenvalues ---    0.34758   0.35054   0.35054   0.35303   0.35303
     Eigenvalues ---    0.37280   0.57080   0.570801000.000001000.00000
     Eigenvalues --- 1000.000001000.000001000.000001000.000001000.00000
     Eigenvalues --- 1000.000001000.000001000.00000
 RFO step:  Lambda=-1.50886941D-06 EMin= 1.73228825D-02
 Linear search not attempted -- first point.
 Iteration  1 RMS(Cart)=  0.00038364 RMS(Int)=  0.00000001
 Iteration  2 RMS(Cart)=  0.00000002 RMS(Int)=  0.00000000
 Iteration  1 RMS(Cart)=  0.00000000 RMS(Int)=  0.00000000
 ClnCor:  largest displacement from symmetrization is 1.20D-12 for atom     5.
 Variable       Old X    -DE/DX   Delta X   Delta X   Delta X     New X
                                 (Linear)    (Quad)   (Total)
    R1        2.06069  -0.00031   0.00000  -0.00089  -0.00089   2.05980
    R2        2.75426  -0.00025   0.00000  -0.00068  -0.00068   2.75358
    R3        2.53329   0.00043   0.00000   0.00076   0.00076   2.53405
    R4        2.06069  -0.00031   0.00000  -0.00089  -0.00089   2.05980
    R5        2.53329   0.00043   0.00000   0.00076   0.00076   2.53405
    R6        2.05587   0.00005   0.00000   0.00015   0.00015   2.05603
    R7        2.05186   0.00014   0.00000   0.00039   0.00039   2.05225
    R8        2.05587   0.00005   0.00000   0.00015   0.00015   2.05603
    R9        2.05186   0.00014   0.00000   0.00039   0.00039   2.05225
    A1        2.02888   0.00001   0.00000   0.00005   0.00005   2.02893
    A2        2.08467  -0.00001   0.00000  -0.00004  -0.00004   2.08463
    A3        2.16964  -0.00000   0.00000  -0.00001  -0.00001   2.16962
    A4        2.02888   0.00001   0.00000   0.00005   0.00005   2.02893
    A5        2.16964  -0.00000   0.00000  -0.00001  -0.00001   2.16962
    A6        2.08467  -0.00001   0.00000  -0.00004  -0.00004   2.08463
    A7        2.12138   0.00001   0.00000   0.00006   0.00006   2.12143
    A8        2.12636  -0.00000   0.00000  -0.00003  -0.00003   2.12634
    A9        2.03545  -0.00000   0.00000  -0.00003  -0.00003   2.03542
   A10        2.12138   0.00001   0.00000   0.00006   0.00006   2.12143
   A11        2.12636  -0.00000   0.00000  -0.00003  -0.00003   2.12634
   A12        2.03545  -0.00000   0.00000  -0.00003  -0.00003   2.03542
    D1        3.14159  -0.00000   0.00000   0.00000   0.00000   3.14159
    D2        0.00000   0.00000   0.00000   0.00000   0.00000   0.00000
    D3        0.00000  -0.00000   0.00000   0.00000   0.00000   0.00000
    D4        3.14159  -0.00000   0.00000   0.00000   0.00000   3.14159
    D5        3.14159   0.00000   0.00000  -0.00000   0.00000   3.14159
    D6        0.00000   0.00000   0.00000  -0.00000   0.00000   0.00000
    D7        0.00000   0.00000   0.00000  -0.00000   0.00000   0.00000
    D8        3.14159   0.00000   0.00000  -0.00000   0.00000   3.14159
    D9        0.00000   0.00000   0.00000   0.00000   0.00000   0.00000
   D10        3.14159   0.00000   0.00000   0.00000   0.00000   3.14159
   D11        3.14159   0.00000   0.00000   0.00000   0.00000   3.14159
   D12        0.00000   0.00000   0.00000   0.00000   0.00000   0.00000
         Item               Value     Threshold  Converged?
 Maximum Force            0.000434     0.000450     YES
 RMS     Force            0.000145     0.000300     YES
 Maximum Displacement     0.000941     0.001800     YES
 RMS     Displacement     0.000384     0.001200     YES
 Predicted change in Energy=-7.544347D-07
 Optimization completed.
    -- Stationary point found.
                           ----------------------------
                           !   Optimized Parameters   !
                           ! (Angstroms and Degrees)  !
 --------------------------                            --------------------------
 ! Name  Definition              Value          Derivative Info.                !
 --------------------------------------------------------------------------------
 ! R1    R(1,2)                  1.0905         -DE/DX =   -0.0003              !
 ! R2    R(1,3)                  1.4575         -DE/DX =   -0.0003              !
 ! R3    R(1,8)                  1.3406         -DE/DX =    0.0004              !
 ! R4    R(3,4)                  1.0905         -DE/DX =   -0.0003              !
 ! R5    R(3,5)                  1.3406         -DE/DX =    0.0004              !
 ! R6    R(5,6)                  1.0879         -DE/DX =    0.0001              !
 ! R7    R(5,7)                  1.0858         -DE/DX =    0.0001              !
 ! R8    R(8,9)                  1.0879         -DE/DX =    0.0001              !
 ! R9    R(8,10)                 1.0858         -DE/DX =    0.0001              !
 ! A1    A(2,1,3)              116.2462         -DE/DX =    0.0                 !
 ! A2    A(2,1,8)              119.4427         -DE/DX =    0.0                 !
 ! A3    A(3,1,8)              124.3112         -DE/DX =    0.0                 !
 ! A4    A(1,3,4)              116.2462         -DE/DX =    0.0                 !
 ! A5    A(1,3,5)              124.3112         -DE/DX =    0.0                 !
 ! A6    A(4,3,5)              119.4427         -DE/DX =    0.0                 !
 ! A7    A(3,5,6)              121.5459         -DE/DX =    0.0                 !
 ! A8    A(3,5,7)              121.8316         -DE/DX =    0.0                 !
 ! A9    A(6,5,7)              116.6225         -DE/DX =    0.0                 !
 ! A10   A(1,8,9)              121.5459         -DE/DX =    0.0                 !
 ! A11   A(1,8,10)             121.8316         -DE/DX =    0.0                 !
 ! A12   A(9,8,10)             116.6225         -DE/DX =    0.0                 !
 ! D1    D(2,1,3,4)            180.0            -DE/DX =    0.0                 !
 ! D2    D(2,1,3,5)              0.0            -DE/DX =    0.0                 !
 ! D3    D(8,1,3,4)              0.0            -DE/DX =    0.0                 !
 ! D4    D(8,1,3,5)            180.0            -DE/DX =    0.0                 !
 ! D5    D(2,1,8,9)            180.0            -DE/DX =    0.0                 !
 ! D6    D(2,1,8,10)             0.0            -DE/DX =    0.0                 !
 ! D7    D(3,1,8,9)              0.0            -DE/DX =    0.0                 !
 ! D8    D(3,1,8,10)           180.0            -DE/DX =    0.0                 !
 ! D9    D(1,3,5,6)              0.0            -DE/DX =    0.0                 !
 ! D10   D(1,3,5,7)            180.0            -DE/DX =    0.0                 !
 ! D11   D(4,3,5,6)            180.0            -DE/DX =    0.0                 !
 ! D12   D(4,3,5,7)              0.0            -DE/DX =    0.0                 !
 --------------------------------------------------------------------------------
 Iteration  1 RMS(Cart)=  0.03228456 RMS(Int)=  0.02164512
 Iteration  2 RMS(Cart)=  0.00094064 RMS(Int)=  0.02163842
 Iteration  3 RMS(Cart)=  0.00000658 RMS(Int)=  0.02163842
 Iteration  4 RMS(Cart)=  0.00000023 RMS(Int)=  0.02163842
 Iteration  1 RMS(Cart)=  0.01639476 RMS(Int)=  0.01097009
 Iteration  2 RMS(Cart)=  0.00832909 RMS(Int)=  0.01226199
 Iteration  3 RMS(Cart)=  0.00422601 RMS(Int)=  0.01373166
 Iteration  4 RMS(Cart)=  0.00214228 RMS(Int)=  0.01462256
 Iteration  5 RMS(Cart)=  0.00108542 RMS(Int)=  0.01510397
 Iteration  6 RMS(Cart)=  0.00054979 RMS(Int)=  0.01535469
 Iteration  7 RMS(Cart)=  0.00027844 RMS(Int)=  0.01548332
 Iteration  8 RMS(Cart)=  0.00014101 RMS(Int)=  0.01554888
 Iteration  9 RMS(Cart)=  0.00007140 RMS(Int)=  0.01558218
 Iteration 10 RMS(Cart)=  0.00003616 RMS(Int)=  0.01559908
 Iteration 11 RMS(Cart)=  0.00001831 RMS(Int)=  0.01560764
 Iteration 12 RMS(Cart)=  0.00000927 RMS(Int)=  0.01561197
 Iteration 13 RMS(Cart)=  0.00000469 RMS(Int)=  0.01561417
 Iteration 14 RMS(Cart)=  0.00000238 RMS(Int)=  0.01561528
 Iteration 15 RMS(Cart)=  0.00000120 RMS(Int)=  0.01561584
 Iteration 16 RMS(Cart)=  0.00000061 RMS(Int)=  0.01561613
 GradGradGradGradGradGradGradGradGradGradGradGradGradGradGradGradGradGrad

                          Input orientation:                          
 ---------------------------------------------------------------------
 Center     Atomic      Atomic             Coordinates (Angstroms)
 Number     Number       Type             X           Y           Z
 ---------------------------------------------------------------------
      1          6           0       -0.325560    0.651782    0.074195
      2          1           0       -1.415552    0.647724    0.075400
      3          6           0        0.325560   -0.651782    0.074195
      4          1           0        1.415552   -0.647723    0.075400
      5          6           0       -0.325122   -1.820644   -0.022428
      6          1           0       -1.411316   -1.865618   -0.068079
      7          1           0        0.202984   -2.768947   -0.059088
      8          6           0        0.325122    1.820644   -0.022428
      9          1           0        1.411316    1.865618   -0.068079
     10          1           0       -0.202984    2.768947   -0.059088
 ---------------------------------------------------------------------
                    Distance matrix (angstroms):
                    1          2          3          4          5
     1  C    0.000000
     2  H    1.090000   0.000000
     3  C    1.457134   2.172600   0.000000
     4  H    2.172600   3.113412   1.090000   0.000000
     5  C    2.474314   2.700268   1.341253   2.101252   0.000000
     6  H    2.745253   2.517437   2.123765   3.081402   1.088083
     7  H    3.463887   3.783039   2.124895   2.447039   1.086057
     8  C    1.341253   2.101252   2.474314   2.700268   3.698891
     9  H    2.123765   3.081402   2.745253   2.517437   4.075025
    10  H    2.124895   2.447039   3.463887   3.783039   4.591362
                    6          7          8          9         10
     6  H    0.000000
     7  H    1.849878   0.000000
     8  C    4.075025   4.591362   0.000000
     9  H    4.678609   4.789504   1.088083   0.000000
    10  H    4.789504   5.552755   1.086057   1.849878   0.000000
 Stoichiometry    C4H6
 Framework group  C1[X(C4H6)]
 Deg. of freedom    24
 Full point group                 C1      NOp   1
 Omega: Change in point group or standard orientation.

 Old FWG=C02H [SGH(C4H6)]
 New FWG=C01  [X(C4H6)]
 Largest Abelian subgroup         C1      NOp   1
 Largest concise Abelian subgroup C1      NOp   1
                         Standard orientation:                         
 ---------------------------------------------------------------------
 Center     Atomic      Atomic             Coordinates (Angstroms)
 Number     Number       Type             X           Y           Z
 ---------------------------------------------------------------------
      1          6           0        0.609162    0.399664    0.056939
      2          1           0        0.477458    1.481677    0.058144
      3          6           0       -0.609162   -0.399664    0.056939
      4          1           0       -0.477458   -1.481677    0.058144
      5          6           0       -1.846193    0.109628   -0.039683
      6          1           0       -2.018087    1.183077   -0.085335
      7          1           0       -2.726111   -0.525920   -0.076344
      8          6           0        1.846193   -0.109628   -0.039683
      9          1           0        2.018087   -1.183077   -0.085335
     10          1           0        2.726111    0.525920   -0.076344
 ---------------------------------------------------------------------
 Rotational constants (GHZ):          41.8652152           4.4135261           4.0019780
 Standard basis: STO-3G (5D, 7F)
 There are    26 symmetry adapted cartesian basis functions of A   symmetry.
 There are    26 symmetry adapted basis functions of A   symmetry.
    26 basis functions,    78 primitive gaussians,    26 cartesian basis functions
    15 alpha electrons       15 beta electrons
       nuclear repulsion energy       103.5487130872 Hartrees.
 NAtoms=   10 NActive=   10 NUniq=   10 SFac= 1.00D+00 NAtFMM=   60 NAOKFM=F Big=F
 Integral buffers will be    131072 words long.
 Raffenetti 1 integral format.
 Two-electron integral symmetry is turned on.
 External calculation of energy and first derivatives.
 Running external command "gromacs_link.sh -p joyce.new.top R"
         input file       "/scratch/sonatak/Gau-27160.EIn"
         output file      "/scratch/sonatak/Gau-27160.EOu"
         message file     "/scratch/sonatak/Gau-27160.EMs"
         fchk file        "/scratch/sonatak/Gau-27160.EFC"
         mat. el file     "/scratch/sonatak/Gau-27160.EUF"

 ExternalExternalExternalExternalExternalExternalExternalExternalExternalExternal
 Output from external command:
 "gromacs_link.sh -p joyce.new.top R /scratch/sonatak/Gau-27160.EIn /scratch/sonatak/Gau-27160.EOu /scratch/sonatak/Gau-27160.EMs /scratch/sonatak/Gau-27160.EFC /scratch/sonatak/Gau-27160.EUF"
 gmxMM   grofile_R: gaussian
 gmxMM   grofile_M: gaussian
 gmxMM   grofile_S: gaussian
 gmxMM  GROMACS PARAMETERS
 gmxMM   mdpfile = SinglePoint_Gau-27160_tmp.mdp
 gmxMM   mdpfile_nm = NormalModes_Gau-27160_tmp.mdp
 gmxMM   mdpfile_min = Minim_Gau-27160_tmp.mdp
 gmxMM   topfile = joyce.new.top
 gmxMM   struct file = Gau-27160_tmp_R.trr
 gmxMM   save_intermediate = false
 gmxMM   nproc_gmx = 1
 gmxMM   job_type = SinglePoint
  
 gmxMM  GAUSSIAN INTERFACE
 gmxMM   Layer: R
 gmxMM   Gaussian input /scratch/sonatak/Gau-27160.EIn
 gmxMM   Gaussian output /scratch/sonatak/Gau-27160.EOu
 gmxMM   Gaussian message /scratch/sonatak/Gau-27160.EMs
  
 gmxMM   Number of gmx atoms mapping gaussian atoms 10
  
 gmxMM  GROMACS Energy"
 gmxMM     0.987888  (KJ/mol)"
 gmxMM  GROMACS Dipole"
 gmxMM     ( 2.16509307e-08 , -1.43146647e-09 , -1.02406831e-01 )  (Debye)"
  
 gmxMM  Max force    0.00418 au (207.32    KJ/mol * nm-1) on atom     3
  
 gmxMM  The output file for Gaussian has been updated
  
 ExternalExternalExternalExternalExternalExternalExternalExternalExternalExternal

 Recovered energy= 0.376266650625E-03 dipole=      0.000000008518     -0.000000000563     -0.040289918966
 Energy=    3.762666506E-04 NIter=   0.
 Dipole moment=       0.000000      -0.000000      -0.040290
 ***** Axes restored to original set *****
 -------------------------------------------------------------------
 Center     Atomic                   Forces (Hartrees/Bohr)
 Number     Number              X              Y              Z
 -------------------------------------------------------------------
      1        6          -0.000113176    0.000163439   -0.004166019
      2        1          -0.000007991   -0.000139541    0.001860719
      3        6           0.000213783   -0.000242493   -0.004166079
      4        1          -0.000022619    0.000184439    0.001865502
      5        6          -0.000163789    0.000148310    0.001601433
      6        1           0.000046042    0.000004234    0.000228073
      7        1          -0.000025325    0.000011380    0.000473482
      8        6           0.000093785   -0.000114160    0.001601338
      9        1          -0.000046030   -0.000004235    0.000228073
     10        1           0.000025321   -0.000011374    0.000473482
 -------------------------------------------------------------------
 Cartesian Forces:  Max     0.004166079 RMS     0.001259764

 GradGradGradGradGradGradGradGradGradGradGradGradGradGradGradGradGradGrad
 Berny optimization.
 FormGI is forming the generalized inverse of G from B-inverse, IUseBI=4.
 Internal  Forces:  Max     0.002651102 RMS     0.000815499
 Search for a local minimum.
 Step number   1 out of a maximum of   43 on scan point     2 out of    19
 All quantities printed in internal units (Hartrees-Bohrs-Radians)
 Mixed Optimization -- RFO/linear search
 Second derivative matrix not updated -- first step.
 ITU=  0
     Eigenvalues ---    0.01738   0.02136   0.02875   0.02875   0.02875
     Eigenvalues ---    0.02875   0.15957   0.15971   0.16000   0.16000
     Eigenvalues ---    0.16000   0.16000   0.22009   0.22009   0.34758
     Eigenvalues ---    0.34758   0.35054   0.35054   0.35303   0.35303
     Eigenvalues ---    0.37280   0.57080   0.570801000.000001000.00000
     Eigenvalues --- 1000.000001000.000001000.000001000.000001000.00000
     Eigenvalues --- 1000.000001000.000001000.00000
 RFO step:  Lambda=-3.99410883D-04 EMin= 1.73779052D-02
 Linear search not attempted -- first point.
 Iteration  1 RMS(Cart)=  0.02627945 RMS(Int)=  0.00064245
 Iteration  2 RMS(Cart)=  0.00058855 RMS(Int)=  0.00015737
 Iteration  3 RMS(Cart)=  0.00000014 RMS(Int)=  0.00015737
 Iteration  1 RMS(Cart)=  0.00000601 RMS(Int)=  0.00000402
 Iteration  2 RMS(Cart)=  0.00000305 RMS(Int)=  0.00000449
 Iteration  3 RMS(Cart)=  0.00000154 RMS(Int)=  0.00000503
 Iteration  4 RMS(Cart)=  0.00000078 RMS(Int)=  0.00000536
 Variable       Old X    -DE/DX   Delta X   Delta X   Delta X     New X
                                 (Linear)    (Quad)   (Total)
    R1        2.05980   0.00001   0.00000   0.00003   0.00003   2.05983
    R2        2.75358  -0.00007   0.00000  -0.00020  -0.00020   2.75339
    R3        2.53460  -0.00024   0.00000  -0.00043  -0.00043   2.53418
    R4        2.05980  -0.00002   0.00000  -0.00006  -0.00006   2.05974
    R5        2.53460  -0.00024   0.00000  -0.00042  -0.00042   2.53418
    R6        2.05618  -0.00006   0.00000  -0.00016  -0.00016   2.05602
    R7        2.05235  -0.00004   0.00000  -0.00011  -0.00011   2.05224
    R8        2.05618  -0.00006   0.00000  -0.00016  -0.00016   2.05602
    R9        2.05235  -0.00004   0.00000  -0.00011  -0.00011   2.05224
    A1        2.03031  -0.00023   0.00000  -0.00009  -0.00045   2.02986
    A2        2.08111   0.00025   0.00000   0.00248   0.00212   2.08323
    A3        2.16862   0.00014   0.00000   0.00130   0.00094   2.16956
    A4        2.03031  -0.00023   0.00000  -0.00015  -0.00051   2.02980
    A5        2.16862   0.00004   0.00000   0.00085   0.00048   2.16910
    A6        2.08111   0.00035   0.00000   0.00300   0.00264   2.08375
    A7        2.12155  -0.00001   0.00000  -0.00008  -0.00013   2.12142
    A8        2.12641  -0.00001   0.00000  -0.00005  -0.00011   2.12630
    A9        2.03522   0.00002   0.00000   0.00012   0.00007   2.03529
   A10        2.12155  -0.00001   0.00000  -0.00008  -0.00013   2.12142
   A11        2.12641  -0.00001   0.00000  -0.00005  -0.00011   2.12630
   A12        2.03522   0.00002   0.00000   0.00012   0.00007   2.03529
    D1       -3.13913   0.00177   0.00000   0.10128   0.10125  -3.03788
    D2        0.08850  -0.00044   0.00000   0.05060   0.05059   0.13909
    D3        0.08850  -0.00044   0.00000   0.05068   0.05066   0.13916
    D4       -2.96706  -0.00265   0.00000   0.00000   0.00000  -2.96706
    D5       -3.09742  -0.00132   0.00000  -0.03270  -0.03273  -3.13015
    D6        0.04418  -0.00071   0.00000  -0.01180  -0.01182   0.03235
    D7       -0.04420   0.00093   0.00000   0.01915   0.01918  -0.02501
    D8        3.09740   0.00154   0.00000   0.04006   0.04009   3.13749
    D9       -0.04420   0.00093   0.00000   0.01918   0.01921  -0.02498
   D10        3.09740   0.00154   0.00000   0.04009   0.04012   3.13752
   D11       -3.09742  -0.00132   0.00000  -0.03273  -0.03276  -3.13018
   D12        0.04418  -0.00071   0.00000  -0.01182  -0.01186   0.03232
         Item               Value     Threshold  Converged?
 Maximum Force            0.001808     0.000450     NO 
 RMS     Force            0.000491     0.000300     NO 
 Maximum Displacement     0.067492     0.001800     NO 
 RMS     Displacement     0.026279     0.001200     NO 
 Predicted change in Energy=-2.044558D-04
 GradGradGradGradGradGradGradGradGradGradGradGradGradGradGradGradGradGrad

                          Input orientation:                          
 ---------------------------------------------------------------------
 Center     Atomic      Atomic             Coordinates (Angstroms)
 Number     Number       Type             X           Y           Z
 ---------------------------------------------------------------------
      1          6           0       -0.325237    0.651660    0.060425
      2          1           0       -1.414071    0.647847    0.111044
      3          6           0        0.325659   -0.651901    0.060433
      4          1           0        1.414443   -0.648020    0.111115
      5          6           0       -0.324512   -1.820797   -0.036131
      6          1           0       -1.409761   -1.865005   -0.099553
      7          1           0        0.201889   -2.770690   -0.035822
      8          6           0        0.324398    1.820850   -0.036134
      9          1           0        1.409627    1.865553   -0.099553
     10          1           0       -0.202435    2.770503   -0.035823
 ---------------------------------------------------------------------
                    Distance matrix (angstroms):
                    1          2          3          4          5
     1  C    0.000000
     2  H    1.090016   0.000000
     3  C    1.457030   2.172226   0.000000
     4  H    2.172148   3.111232   1.089970   0.000000
     5  C    2.474342   2.702407   1.341032   2.102629   0.000000
     6  H    2.745066   2.521664   2.123416   3.082459   1.087999
     7  H    3.464045   3.784084   2.124583   2.449001   1.085999
     8  C    1.341028   2.102350   2.474636   2.702814   3.699011
     9  H    2.123413   3.082277   2.745570   2.522391   4.074363
    10  H    2.124580   2.448530   3.464245   3.784467   4.592923
                    6          7          8          9         10
     6  H    0.000000
     7  H    1.849795   0.000000
     8  C    4.073924   4.593175   0.000000
     9  H    4.676110   4.791393   1.087999   0.000000
    10  H    4.790577   5.555925   1.085999   1.849795   0.000000
 Stoichiometry    C4H6
 Framework group  C1[X(C4H6)]
 Deg. of freedom    24
 Full point group                 C1      NOp   1
 Largest Abelian subgroup         C1      NOp   1
 Largest concise Abelian subgroup C1      NOp   1
                         Standard orientation:                         
 ---------------------------------------------------------------------
 Center     Atomic      Atomic             Coordinates (Angstroms)
 Number     Number       Type             X           Y           Z
 ---------------------------------------------------------------------
      1          6           0        0.609240    0.399176    0.052326
      2          1           0        0.478283    1.480113    0.102945
      3          6           0       -0.609379   -0.399513    0.052335
      4          1           0       -0.478362   -1.480393    0.103016
      5          6           0       -1.846212    0.109687   -0.044230
      6          1           0       -2.016867    1.182346   -0.107652
      7          1           0       -2.728124   -0.524052   -0.043921
      8          6           0        1.846301   -0.109459   -0.044233
      9          1           0        2.017446   -1.182040   -0.107652
     10          1           0        2.727924    0.524683   -0.043921
 ---------------------------------------------------------------------
 Rotational constants (GHZ):          41.8976444           4.4120576           4.0018944
 Standard basis: STO-3G (5D, 7F)
 There are    26 symmetry adapted cartesian basis functions of A   symmetry.
 There are    26 symmetry adapted basis functions of A   symmetry.
    26 basis functions,    78 primitive gaussians,    26 cartesian basis functions
    15 alpha electrons       15 beta electrons
       nuclear repulsion energy       103.5500437924 Hartrees.
 NAtoms=   10 NActive=   10 NUniq=   10 SFac= 1.00D+00 NAtFMM=   60 NAOKFM=F Big=F
 Integral buffers will be    131072 words long.
 Raffenetti 1 integral format.
 Two-electron integral symmetry is turned on.
 External calculation of energy and first derivatives.
 Running external command "gromacs_link.sh -p joyce.new.top R"
         input file       "/scratch/sonatak/Gau-27160.EIn"
         output file      "/scratch/sonatak/Gau-27160.EOu"
         message file     "/scratch/sonatak/Gau-27160.EMs"
         fchk file        "/scratch/sonatak/Gau-27160.EFC"
         mat. el file     "/scratch/sonatak/Gau-27160.EUF"

 ExternalExternalExternalExternalExternalExternalExternalExternalExternalExternal
 Output from external command:
 "gromacs_link.sh -p joyce.new.top R /scratch/sonatak/Gau-27160.EIn /scratch/sonatak/Gau-27160.EOu /scratch/sonatak/Gau-27160.EMs /scratch/sonatak/Gau-27160.EFC /scratch/sonatak/Gau-27160.EUF"
 gmxMM   grofile_R: gaussian
 gmxMM   grofile_M: gaussian
 gmxMM   grofile_S: gaussian
 gmxMM  GROMACS PARAMETERS
 gmxMM   mdpfile = SinglePoint_Gau-27160_tmp.mdp
 gmxMM   mdpfile_nm = NormalModes_Gau-27160_tmp.mdp
 gmxMM   mdpfile_min = Minim_Gau-27160_tmp.mdp
 gmxMM   topfile = joyce.new.top
 gmxMM   struct file = Gau-27160_tmp_R.trr
 gmxMM   save_intermediate = false
 gmxMM   nproc_gmx = 1
 gmxMM   job_type = SinglePoint
  
 gmxMM  GAUSSIAN INTERFACE
 gmxMM   Layer: R
 gmxMM   Gaussian input /scratch/sonatak/Gau-27160.EIn
 gmxMM   Gaussian output /scratch/sonatak/Gau-27160.EOu
 gmxMM   Gaussian message /scratch/sonatak/Gau-27160.EMs
  
 gmxMM   Number of gmx atoms mapping gaussian atoms 10
  
 gmxMM  GROMACS Energy"
 gmxMM     0.530340  (KJ/mol)"
 gmxMM  GROMACS Dipole"
 gmxMM     ( 1.60641317e-04 , 3.35849684e-04 , -2.41717690e-02 )  (Debye)"
  
 gmxMM  Max force    0.00234 au (115.85    KJ/mol * nm-1) on atom     8
  
 gmxMM  The output file for Gaussian has been updated
  
 ExternalExternalExternalExternalExternalExternalExternalExternalExternalExternal

 Recovered energy= 0.201995828973E-03 dipole=      0.000063201112      0.000132133339     -0.009509898947
 Energy=    2.019958290E-04 NIter=   0.
 Dipole moment=       0.000063       0.000132      -0.009510
 ***** Axes restored to original set *****
 -------------------------------------------------------------------
 Center     Atomic                   Forces (Hartrees/Bohr)
 Number     Number              X              Y              Z
 -------------------------------------------------------------------
      1        6          -0.000184337    0.000077285   -0.001668550
      2        1           0.000006650   -0.000117196   -0.000051996
      3        6           0.000102237   -0.000016162   -0.001649612
      4        1           0.000019205    0.000083505   -0.000059677
      5        6          -0.000155732   -0.000077929    0.002321164
      6        1           0.000010961    0.000015393   -0.000221718
      7        1           0.000031601    0.000017160   -0.000386603
      8        6           0.000212027    0.000050400    0.002324853
      9        1          -0.000011016   -0.000015370   -0.000221585
     10        1          -0.000031593   -0.000017087   -0.000386292
 -------------------------------------------------------------------
 Cartesian Forces:  Max     0.002324853 RMS     0.000749536

 GradGradGradGradGradGradGradGradGradGradGradGradGradGradGradGradGradGrad
 Berny optimization.
 Using GEDIIS/GDIIS optimizer.
 FormGI is forming the generalized inverse of G from B-inverse, IUseBI=4.
 Internal  Forces:  Max     0.001516875 RMS     0.000403116
 Search for a local minimum.
 Step number   2 out of a maximum of   43 on scan point     2 out of    19
 All quantities printed in internal units (Hartrees-Bohrs-Radians)
 Mixed Optimization -- En-DIIS/RFO-DIIS
 Update second derivatives using D2CorX and points    1    2
 DE= -1.74D-04 DEPred=-2.04D-04 R= 8.52D-01
 TightC=F SS=  1.41D+00  RLast= 1.48D-01 DXNew= 5.0454D-01 4.4264D-01
 Trust test= 8.52D-01 RLast= 1.48D-01 DXMaxT set to 4.43D-01
 ITU=  1  0
 Use linear search instead of GDIIS.
     Eigenvalues ---    0.01678   0.02126   0.02875   0.02875   0.02876
     Eigenvalues ---    0.03434   0.15961   0.15996   0.16000   0.16000
     Eigenvalues ---    0.16000   0.16000   0.22001   0.22005   0.34758
     Eigenvalues ---    0.34758   0.35054   0.35054   0.35302   0.35303
     Eigenvalues ---    0.37279   0.57071   0.570801000.000001000.00000
     Eigenvalues --- 1000.000001000.000001000.000001000.000001000.00000
     Eigenvalues --- 1000.000001000.000001000.00000
 RFO step:  Lambda=-1.34538725D-05 EMin= 1.67796835D-02
 Quartic linear search produced a step of -0.11196.
 Iteration  1 RMS(Cart)=  0.00391532 RMS(Int)=  0.00003188
 Iteration  2 RMS(Cart)=  0.00002531 RMS(Int)=  0.00002071
 Iteration  3 RMS(Cart)=  0.00000000 RMS(Int)=  0.00002071
 Iteration  1 RMS(Cart)=  0.00000049 RMS(Int)=  0.00000033
 Variable       Old X    -DE/DX   Delta X   Delta X   Delta X     New X
                                 (Linear)    (Quad)   (Total)
    R1        2.05983  -0.00001  -0.00000  -0.00002  -0.00002   2.05981
    R2        2.75339  -0.00002   0.00002  -0.00007  -0.00004   2.75334
    R3        2.53418  -0.00003   0.00005  -0.00010  -0.00005   2.53412
    R4        2.05974   0.00002   0.00001   0.00003   0.00004   2.05979
    R5        2.53418  -0.00003   0.00005  -0.00011  -0.00006   2.53412
    R6        2.05602   0.00000   0.00002  -0.00002  -0.00000   2.05602
    R7        2.05224   0.00000   0.00001  -0.00002  -0.00000   2.05224
    R8        2.05602   0.00000   0.00002  -0.00002  -0.00000   2.05602
    R9        2.05224   0.00000   0.00001  -0.00001  -0.00000   2.05224
    A1        2.02986  -0.00012   0.00005  -0.00081  -0.00072   2.02915
    A2        2.08323   0.00015  -0.00024   0.00093   0.00073   2.08396
    A3        2.16956  -0.00001  -0.00011   0.00001  -0.00006   2.16950
    A4        2.02980  -0.00012   0.00006  -0.00079  -0.00069   2.02911
    A5        2.16910   0.00007  -0.00005   0.00027   0.00026   2.16936
    A6        2.08375   0.00008  -0.00030   0.00064   0.00038   2.08413
    A7        2.12142  -0.00000   0.00002   0.00005   0.00003   2.12145
    A8        2.12630   0.00000   0.00001   0.00006   0.00005   2.12635
    A9        2.03529   0.00001  -0.00001   0.00012   0.00009   2.03537
   A10        2.12142  -0.00000   0.00002   0.00005   0.00003   2.12145
   A11        2.12630   0.00000   0.00001   0.00006   0.00005   2.12635
   A12        2.03529   0.00001  -0.00001   0.00012   0.00009   2.03537
    D1       -3.03788  -0.00015  -0.01134   0.00836  -0.00298  -3.04085
    D2        0.13909  -0.00083  -0.00566   0.00431  -0.00135   0.13773
    D3        0.13916  -0.00084  -0.00567   0.00405  -0.00163   0.13754
    D4       -2.96706  -0.00152  -0.00000   0.00000  -0.00000  -2.96706
    D5       -3.13015  -0.00016   0.00366   0.00282   0.00649  -3.12366
    D6        0.03235  -0.00069   0.00132  -0.01058  -0.00925   0.02310
    D7       -0.02501   0.00055  -0.00215   0.00722   0.00507  -0.01994
    D8        3.13749   0.00001  -0.00449  -0.00618  -0.01067   3.12682
    D9       -0.02498   0.00054  -0.00215   0.00709   0.00494  -0.02004
   D10        3.13752   0.00001  -0.00449  -0.00632  -0.01081   3.12671
   D11       -3.13018  -0.00015   0.00367   0.00296   0.00663  -3.12355
   D12        0.03232  -0.00069   0.00133  -0.01045  -0.00912   0.02320
         Item               Value     Threshold  Converged?
 Maximum Force            0.000374     0.000450     YES
 RMS     Force            0.000147     0.000300     YES
 Maximum Displacement     0.012634     0.001800     NO 
 RMS     Displacement     0.003916     0.001200     NO 
 Predicted change in Energy=-9.530848D-06
 GradGradGradGradGradGradGradGradGradGradGradGradGradGradGradGradGradGrad

                          Input orientation:                          
 ---------------------------------------------------------------------
 Center     Atomic      Atomic             Coordinates (Angstroms)
 Number     Number       Type             X           Y           Z
 ---------------------------------------------------------------------
      1          6           0       -0.325228    0.651807    0.063580
      2          1           0       -1.414112    0.647439    0.112828
      3          6           0        0.325351   -0.651885    0.063639
      4          1           0        1.414223   -0.647471    0.112821
      5          6           0       -0.324773   -1.820772   -0.032935
      6          1           0       -1.409747   -1.864811   -0.100999
      7          1           0        0.202299   -2.770242   -0.042507
      8          6           0        0.324739    1.820782   -0.032948
      9          1           0        1.409708    1.864970   -0.100984
     10          1           0       -0.202460    2.770183   -0.042495
 ---------------------------------------------------------------------
                    Distance matrix (angstroms):
                    1          2          3          4          5
     1  C    0.000000
     2  H    1.090005   0.000000
     3  C    1.457007   2.171725   0.000000
     4  H    2.171691   3.110670   1.089992   0.000000
     5  C    2.474462   2.701845   1.341001   2.102852   0.000000
     6  H    2.745293   2.521337   2.123407   3.082603   1.087998
     7  H    3.464096   3.783841   2.124581   2.449295   1.085998
     8  C    1.340999   2.102758   2.474554   2.701943   3.699024
     9  H    2.123406   3.082541   2.745450   2.521526   4.074034
    10  H    2.124580   2.449136   3.464159   3.783932   4.592593
                    6          7          8          9         10
     6  H    0.000000
     7  H    1.849842   0.000000
     8  C    4.073902   4.592667   0.000000
     9  H    4.675532   4.790246   1.087998   0.000000
    10  H    4.790004   5.555190   1.085998   1.849842   0.000000
 Stoichiometry    C4H6
 Framework group  C1[X(C4H6)]
 Deg. of freedom    24
 Full point group                 C1      NOp   1
 Largest Abelian subgroup         C1      NOp   1
 Largest concise Abelian subgroup C1      NOp   1
                         Standard orientation:                         
 ---------------------------------------------------------------------
 Center     Atomic      Atomic             Coordinates (Angstroms)
 Number     Number       Type             X           Y           Z
 ---------------------------------------------------------------------
      1          6           0        0.609318    0.399227    0.053357
      2          1           0        0.477661    1.480130    0.102605
      3          6           0       -0.609363   -0.399325    0.053417
      4          1           0       -0.477661   -1.480213    0.102599
      5          6           0       -1.846247    0.109666   -0.043158
      6          1           0       -2.016847    1.182048   -0.111222
      7          1           0       -2.727577   -0.524809   -0.052730
      8          6           0        1.846273   -0.109599   -0.043170
      9          1           0        2.017019   -1.181959   -0.111207
     10          1           0        2.727518    0.524993   -0.052718
 ---------------------------------------------------------------------
 Rotational constants (GHZ):          41.8899413           4.4121997           4.0021609
 Standard basis: STO-3G (5D, 7F)
 There are    26 symmetry adapted cartesian basis functions of A   symmetry.
 There are    26 symmetry adapted basis functions of A   symmetry.
    26 basis functions,    78 primitive gaussians,    26 cartesian basis functions
    15 alpha electrons       15 beta electrons
       nuclear repulsion energy       103.5518342336 Hartrees.
 NAtoms=   10 NActive=   10 NUniq=   10 SFac= 1.00D+00 NAtFMM=   60 NAOKFM=F Big=F
 Integral buffers will be    131072 words long.
 Raffenetti 1 integral format.
 Two-electron integral symmetry is turned on.
 External calculation of energy and first derivatives.
 Running external command "gromacs_link.sh -p joyce.new.top R"
         input file       "/scratch/sonatak/Gau-27160.EIn"
         output file      "/scratch/sonatak/Gau-27160.EOu"
         message file     "/scratch/sonatak/Gau-27160.EMs"
         fchk file        "/scratch/sonatak/Gau-27160.EFC"
         mat. el file     "/scratch/sonatak/Gau-27160.EUF"

 ExternalExternalExternalExternalExternalExternalExternalExternalExternalExternal
 Output from external command:
 "gromacs_link.sh -p joyce.new.top R /scratch/sonatak/Gau-27160.EIn /scratch/sonatak/Gau-27160.EOu /scratch/sonatak/Gau-27160.EMs /scratch/sonatak/Gau-27160.EFC /scratch/sonatak/Gau-27160.EUF"
 gmxMM   grofile_R: gaussian
 gmxMM   grofile_M: gaussian
 gmxMM   grofile_S: gaussian
 gmxMM  GROMACS PARAMETERS
 gmxMM   mdpfile = SinglePoint_Gau-27160_tmp.mdp
 gmxMM   mdpfile_nm = NormalModes_Gau-27160_tmp.mdp
 gmxMM   mdpfile_min = Minim_Gau-27160_tmp.mdp
 gmxMM   topfile = joyce.new.top
 gmxMM   struct file = Gau-27160_tmp_R.trr
 gmxMM   save_intermediate = false
 gmxMM   nproc_gmx = 1
 gmxMM   job_type = SinglePoint
  
 gmxMM  GAUSSIAN INTERFACE
 gmxMM   Layer: R
 gmxMM   Gaussian input /scratch/sonatak/Gau-27160.EIn
 gmxMM   Gaussian output /scratch/sonatak/Gau-27160.EOu
 gmxMM   Gaussian message /scratch/sonatak/Gau-27160.EMs
  
 gmxMM   Number of gmx atoms mapping gaussian atoms 10
  
 gmxMM  GROMACS Energy"
 gmxMM     0.507862  (KJ/mol)"
 gmxMM  GROMACS Dipole"
 gmxMM     ( 6.47139161e-05 , 9.74584437e-05 , -4.15086421e-02 )  (Debye)"
  
 gmxMM  Max force    0.00153 au (75.777    KJ/mol * nm-1) on atom     3
  
 gmxMM  The output file for Gaussian has been updated
  
 ExternalExternalExternalExternalExternalExternalExternalExternalExternalExternal

 Recovered energy= 0.193434411310E-03 dipole=      0.000025460396      0.000038343075     -0.016330744837
 Energy=    1.934344113E-04 NIter=   0.
 Dipole moment=       0.000025       0.000038      -0.016331
 ***** Axes restored to original set *****
 -------------------------------------------------------------------
 Center     Atomic                   Forces (Hartrees/Bohr)
 Number     Number              X              Y              Z
 -------------------------------------------------------------------
      1        6          -0.000228120   -0.000087822   -0.001507380
      2        1           0.000000861   -0.000023629   -0.000008270
      3        6           0.000215972    0.000098735   -0.001508739
      4        1           0.000002393    0.000016957   -0.000008328
      5        6          -0.000114387   -0.000058863    0.001436873
      6        1          -0.000004475   -0.000000528    0.000043757
      7        1           0.000000590   -0.000002012    0.000035608
      8        6           0.000123378    0.000054759    0.001439282
      9        1           0.000004463    0.000000483    0.000043049
     10        1          -0.000000676    0.000001920    0.000034150
 -------------------------------------------------------------------
 Cartesian Forces:  Max     0.001508739 RMS     0.000542917

 GradGradGradGradGradGradGradGradGradGradGradGradGradGradGradGradGradGrad
 Berny optimization.
 Using GEDIIS/GDIIS optimizer.
 FormGI is forming the generalized inverse of G from B-inverse, IUseBI=4.
 Internal  Forces:  Max     0.001605826 RMS     0.000398659
 Search for a local minimum.
 Step number   3 out of a maximum of   43 on scan point     2 out of    19
 All quantities printed in internal units (Hartrees-Bohrs-Radians)
 Mixed Optimization -- En-DIIS/RFO-DIIS
 Swapping is turned off.
 Update second derivatives using D2CorX and points    1    2    3
 DE= -8.56D-06 DEPred=-9.53D-06 R= 8.98D-01
 TightC=F SS=  1.41D+00  RLast= 2.35D-02 DXNew= 7.4442D-01 7.0399D-02
 Trust test= 8.98D-01 RLast= 2.35D-02 DXMaxT set to 4.43D-01
 ITU=  1  1  0
     Eigenvalues ---    0.01727   0.02127   0.02861   0.02875   0.02875
     Eigenvalues ---    0.03813   0.15835   0.15995   0.16000   0.16000
     Eigenvalues ---    0.16000   0.16000   0.21984   0.22006   0.34758
     Eigenvalues ---    0.34758   0.35054   0.35054   0.35303   0.35303
     Eigenvalues ---    0.37278   0.57071   0.570801000.000001000.00000
     Eigenvalues --- 1000.000001000.000001000.000001000.000001000.00000
     Eigenvalues --- 1000.000001000.000001000.00000
 En-DIIS/RFO-DIIS/Sim-DIIS IScMMF=       -3 using points:     3    2
 RFO step:  Lambda=-3.12461549D-07.
 DidBck=F Rises=F RFO-DIIS coefs:    0.90610    0.09390
 Iteration  1 RMS(Cart)=  0.00063508 RMS(Int)=  0.00000121
 Iteration  2 RMS(Cart)=  0.00000036 RMS(Int)=  0.00000114
 Iteration  1 RMS(Cart)=  0.00000034 RMS(Int)=  0.00000022
 Variable       Old X    -DE/DX   Delta X   Delta X   Delta X     New X
                                 (Linear)    (Quad)   (Total)
    R1        2.05981  -0.00000   0.00000  -0.00001  -0.00000   2.05981
    R2        2.75334  -0.00000   0.00000  -0.00001  -0.00001   2.75333
    R3        2.53412   0.00000   0.00001  -0.00000   0.00000   2.53413
    R4        2.05979   0.00000  -0.00000   0.00001   0.00001   2.05979
    R5        2.53412   0.00000   0.00001  -0.00000   0.00000   2.53413
    R6        2.05602   0.00000   0.00000   0.00000   0.00001   2.05602
    R7        2.05224   0.00000   0.00000   0.00000   0.00000   2.05224
    R8        2.05602   0.00000   0.00000   0.00000   0.00001   2.05602
    R9        2.05224   0.00000   0.00000   0.00000   0.00000   2.05224
    A1        2.02915  -0.00003   0.00007  -0.00021  -0.00015   2.02900
    A2        2.08396   0.00005  -0.00007   0.00019   0.00012   2.08408
    A3        2.16950   0.00001   0.00001   0.00000   0.00001   2.16951
    A4        2.02911  -0.00003   0.00006  -0.00020  -0.00013   2.02898
    A5        2.16936   0.00002  -0.00002   0.00009   0.00006   2.16942
    A6        2.08413   0.00003  -0.00004   0.00009   0.00005   2.08419
    A7        2.12145  -0.00000  -0.00000  -0.00001  -0.00001   2.12144
    A8        2.12635  -0.00000  -0.00000  -0.00001  -0.00001   2.12634
    A9        2.03537   0.00000  -0.00001   0.00002   0.00001   2.03539
   A10        2.12145  -0.00000  -0.00000  -0.00001  -0.00001   2.12144
   A11        2.12635  -0.00000  -0.00000  -0.00001  -0.00001   2.12634
   A12        2.03537   0.00000  -0.00001   0.00002   0.00001   2.03539
    D1       -3.04085  -0.00004   0.00028  -0.00132  -0.00104  -3.04189
    D2        0.13773  -0.00082   0.00013  -0.00065  -0.00053   0.13721
    D3        0.13754  -0.00082   0.00015  -0.00066  -0.00051   0.13702
    D4       -2.96706  -0.00161   0.00000   0.00000   0.00000  -2.96706
    D5       -3.12366  -0.00044  -0.00061  -0.00023  -0.00083  -3.12449
    D6        0.02310  -0.00037   0.00087   0.00020   0.00107   0.02417
    D7       -0.01994   0.00037  -0.00048  -0.00091  -0.00138  -0.02133
    D8        3.12682   0.00043   0.00100  -0.00048   0.00052   3.12734
    D9       -0.02004   0.00037  -0.00046  -0.00093  -0.00139  -0.02144
   D10        3.12671   0.00043   0.00102  -0.00045   0.00057   3.12728
   D11       -3.12355  -0.00044  -0.00062  -0.00024  -0.00086  -3.12441
   D12        0.02320  -0.00037   0.00086   0.00024   0.00110   0.02430
         Item               Value     Threshold  Converged?
 Maximum Force            0.000042     0.000450     YES
 RMS     Force            0.000019     0.000300     YES
 Maximum Displacement     0.001939     0.001800     NO 
 RMS     Displacement     0.000635     0.001200     YES
 Predicted change in Energy=-1.521203D-07
 GradGradGradGradGradGradGradGradGradGradGradGradGradGradGradGradGradGrad

                          Input orientation:                          
 ---------------------------------------------------------------------
 Center     Atomic      Atomic             Coordinates (Angstroms)
 Number     Number       Type             X           Y           Z
 ---------------------------------------------------------------------
      1          6           0       -0.325233    0.651830    0.063328
      2          1           0       -1.414136    0.647320    0.112072
      3          6           0        0.325306   -0.651878    0.063375
      4          1           0        1.414204   -0.647339    0.112055
      5          6           0       -0.324780   -1.820787   -0.033200
      6          1           0       -1.409832   -1.864919   -0.099973
      7          1           0        0.202305   -2.770259   -0.042251
      8          6           0        0.324760    1.820794   -0.033195
      9          1           0        1.409810    1.865015   -0.099960
     10          1           0       -0.202403    2.770222   -0.042252
 ---------------------------------------------------------------------
                    Distance matrix (angstroms):
                    1          2          3          4          5
     1  C    0.000000
     2  H    1.090003   0.000000
     3  C    1.457002   2.171623   0.000000
     4  H    2.171602   3.110571   1.089995   0.000000
     5  C    2.474500   2.701732   1.341003   2.102890   0.000000
     6  H    2.745368   2.521176   2.123407   3.082635   1.088001
     7  H    3.464121   3.783721   2.124576   2.449347   1.086000
     8  C    1.341002   2.102832   2.474557   2.701789   3.699056
     9  H    2.123406   3.082598   2.745465   2.521288   4.074113
    10  H    2.124576   2.449250   3.464160   3.783775   4.592649
                    6          7          8          9         10
     6  H    0.000000
     7  H    1.849854   0.000000
     8  C    4.074034   4.592695   0.000000
     9  H    4.675766   4.790320   1.088001   0.000000
    10  H    4.790172   5.555243   1.086000   1.849854   0.000000
 Stoichiometry    C4H6
 Framework group  C1[X(C4H6)]
 Deg. of freedom    24
 Full point group                 C1      NOp   1
 Largest Abelian subgroup         C1      NOp   1
 Largest concise Abelian subgroup C1      NOp   1
                         Standard orientation:                         
 ---------------------------------------------------------------------
 Center     Atomic      Atomic             Coordinates (Angstroms)
 Number     Number       Type             X           Y           Z
 ---------------------------------------------------------------------
      1          6           0        0.609327    0.399242    0.053277
      2          1           0        0.477502    1.480146    0.102020
      3          6           0       -0.609354   -0.399301    0.053324
      4          1           0       -0.477501   -1.480196    0.102004
      5          6           0       -1.846270    0.109621   -0.043252
      6          1           0       -2.016995    1.182067   -0.110024
      7          1           0       -2.727584   -0.524887   -0.052302
      8          6           0        1.846286   -0.109581   -0.043246
      9          1           0        2.017099   -1.182013   -0.110011
     10          1           0        2.727548    0.525000   -0.052303
 ---------------------------------------------------------------------
 Rotational constants (GHZ):          41.8930805           4.4121416           4.0020846
 Standard basis: STO-3G (5D, 7F)
 There are    26 symmetry adapted cartesian basis functions of A   symmetry.
 There are    26 symmetry adapted basis functions of A   symmetry.
    26 basis functions,    78 primitive gaussians,    26 cartesian basis functions
    15 alpha electrons       15 beta electrons
       nuclear repulsion energy       103.5517078692 Hartrees.
 NAtoms=   10 NActive=   10 NUniq=   10 SFac= 1.00D+00 NAtFMM=   60 NAOKFM=F Big=F
 Integral buffers will be    131072 words long.
 Raffenetti 1 integral format.
 Two-electron integral symmetry is turned on.
 External calculation of energy and first derivatives.
 Running external command "gromacs_link.sh -p joyce.new.top R"
         input file       "/scratch/sonatak/Gau-27160.EIn"
         output file      "/scratch/sonatak/Gau-27160.EOu"
         message file     "/scratch/sonatak/Gau-27160.EMs"
         fchk file        "/scratch/sonatak/Gau-27160.EFC"
         mat. el file     "/scratch/sonatak/Gau-27160.EUF"

 ExternalExternalExternalExternalExternalExternalExternalExternalExternalExternal
 Output from external command:
 "gromacs_link.sh -p joyce.new.top R /scratch/sonatak/Gau-27160.EIn /scratch/sonatak/Gau-27160.EOu /scratch/sonatak/Gau-27160.EMs /scratch/sonatak/Gau-27160.EFC /scratch/sonatak/Gau-27160.EUF"
 gmxMM   grofile_R: gaussian
 gmxMM   grofile_M: gaussian
 gmxMM   grofile_S: gaussian
 gmxMM  GROMACS PARAMETERS
 gmxMM   mdpfile = SinglePoint_Gau-27160_tmp.mdp
 gmxMM   mdpfile_nm = NormalModes_Gau-27160_tmp.mdp
 gmxMM   mdpfile_min = Minim_Gau-27160_tmp.mdp
 gmxMM   topfile = joyce.new.top
 gmxMM   struct file = Gau-27160_tmp_R.trr
 gmxMM   save_intermediate = false
 gmxMM   nproc_gmx = 1
 gmxMM   job_type = SinglePoint
  
 gmxMM  GAUSSIAN INTERFACE
 gmxMM   Layer: R
 gmxMM   Gaussian input /scratch/sonatak/Gau-27160.EIn
 gmxMM   Gaussian output /scratch/sonatak/Gau-27160.EOu
 gmxMM   Gaussian message /scratch/sonatak/Gau-27160.EMs
  
 gmxMM   Number of gmx atoms mapping gaussian atoms 10
  
 gmxMM  GROMACS Energy"
 gmxMM     0.507463  (KJ/mol)"
 gmxMM  GROMACS Dipole"
 gmxMM     ( 3.93309733e-05 , 5.98292156e-05 , -4.01614902e-02 )  (Debye)"
  
 gmxMM  Max force    0.00158 au (78.240    KJ/mol * nm-1) on atom     1
  
 gmxMM  The output file for Gaussian has been updated
  
 ExternalExternalExternalExternalExternalExternalExternalExternalExternalExternal

 Recovered energy= 0.193282440242E-03 dipole=      0.000015473985      0.000023538608     -0.015800734872
 Energy=    1.932824402E-04 NIter=   0.
 Dipole moment=       0.000015       0.000024      -0.015801
 ***** Axes restored to original set *****
 -------------------------------------------------------------------
 Center     Atomic                   Forces (Hartrees/Bohr)
 Number     Number              X              Y              Z
 -------------------------------------------------------------------
      1        6          -0.000239910   -0.000114455   -0.001554386
      2        1          -0.000000033   -0.000006434   -0.000001048
      3        6           0.000239928    0.000115193   -0.001553296
      4        1          -0.000000003    0.000005799   -0.000001291
      5        6          -0.000122708   -0.000061517    0.001555453
      6        1           0.000000215    0.000000780   -0.000002047
      7        1           0.000000618    0.000000338    0.000001553
      8        6           0.000122675    0.000061324    0.001555074
      9        1          -0.000000160   -0.000000753   -0.000001823
     10        1          -0.000000622   -0.000000276    0.000001814
 -------------------------------------------------------------------
 Cartesian Forces:  Max     0.001555453 RMS     0.000572881

 GradGradGradGradGradGradGradGradGradGradGradGradGradGradGradGradGradGrad
 Berny optimization.
 Using GEDIIS/GDIIS optimizer.
 FormGI is forming the generalized inverse of G from B-inverse, IUseBI=4.
 Internal  Forces:  Max     0.001610011 RMS     0.000399258
 Search for a local minimum.
 Step number   4 out of a maximum of   43 on scan point     2 out of    19
 All quantities printed in internal units (Hartrees-Bohrs-Radians)
 Mixed Optimization -- En-DIIS/RFO-DIIS
 Swapping is turned off.
 Update second derivatives using D2CorX and points    1    2    3    4
 DE= -1.52D-07 DEPred=-1.52D-07 R= 9.99D-01
 Trust test= 9.99D-01 RLast= 3.15D-03 DXMaxT set to 4.43D-01
 ITU=  0  1  1  0
     Eigenvalues ---    0.01733   0.02127   0.02875   0.02875   0.02932
     Eigenvalues ---    0.03833   0.15379   0.15996   0.16000   0.16000
     Eigenvalues ---    0.16000   0.16000   0.21907   0.22013   0.34758
     Eigenvalues ---    0.34758   0.35054   0.35054   0.35303   0.35303
     Eigenvalues ---    0.37274   0.57069   0.570801000.000001000.00000
     Eigenvalues --- 1000.000001000.000001000.000001000.000001000.00000
     Eigenvalues --- 1000.000001000.000001000.00000
 En-DIIS/RFO-DIIS/Sim-DIIS IScMMF=       -3 using points:     4    3    2
 RFO step:  Lambda=-6.61011800D-09.
 DidBck=F Rises=F RFO-DIIS coefs:    0.96767    0.02773    0.00460
 Iteration  1 RMS(Cart)=  0.00003775 RMS(Int)=  0.00000021
 Iteration  2 RMS(Cart)=  0.00000000 RMS(Int)=  0.00000021
 Iteration  1 RMS(Cart)=  0.00000032 RMS(Int)=  0.00000021
 Variable       Old X    -DE/DX   Delta X   Delta X   Delta X     New X
                                 (Linear)    (Quad)   (Total)
    R1        2.05981   0.00000   0.00000  -0.00000   0.00000   2.05981
    R2        2.75333  -0.00000   0.00000  -0.00000  -0.00000   2.75333
    R3        2.53413  -0.00000   0.00000  -0.00000  -0.00000   2.53413
    R4        2.05979  -0.00000  -0.00000   0.00000  -0.00000   2.05979
    R5        2.53413  -0.00000   0.00000  -0.00000  -0.00000   2.53413
    R6        2.05602  -0.00000  -0.00000  -0.00000  -0.00000   2.05602
    R7        2.05224  -0.00000  -0.00000   0.00000   0.00000   2.05224
    R8        2.05602  -0.00000  -0.00000  -0.00000  -0.00000   2.05602
    R9        2.05224   0.00000  -0.00000   0.00000   0.00000   2.05224
    A1        2.02900  -0.00002   0.00001  -0.00006  -0.00005   2.02895
    A2        2.08408   0.00003  -0.00001   0.00004   0.00003   2.08412
    A3        2.16951   0.00001  -0.00000   0.00002   0.00002   2.16953
    A4        2.02898  -0.00002   0.00001  -0.00005  -0.00005   2.02893
    A5        2.16942   0.00001  -0.00000   0.00002   0.00002   2.16944
    A6        2.08419   0.00003  -0.00000   0.00003   0.00003   2.08422
    A7        2.12144  -0.00000   0.00000  -0.00000  -0.00000   2.12144
    A8        2.12634  -0.00000   0.00000  -0.00000  -0.00000   2.12633
    A9        2.03539   0.00000  -0.00000   0.00001   0.00001   2.03539
   A10        2.12144  -0.00000   0.00000  -0.00000  -0.00000   2.12144
   A11        2.12634  -0.00000   0.00000  -0.00000  -0.00000   2.12633
   A12        2.03539   0.00000  -0.00000   0.00001   0.00001   2.03539
    D1       -3.04189  -0.00002   0.00005  -0.00003   0.00001  -3.04188
    D2        0.13721  -0.00082   0.00002  -0.00001   0.00001   0.13722
    D3        0.13702  -0.00082   0.00002  -0.00002   0.00000   0.13703
    D4       -2.96706  -0.00161   0.00000   0.00000   0.00000  -2.96706
    D5       -3.12449  -0.00041  -0.00000   0.00005   0.00004  -3.12445
    D6        0.02417  -0.00041   0.00001   0.00004   0.00005   0.02422
    D7       -0.02133   0.00041   0.00002   0.00003   0.00005  -0.02127
    D8        3.12734   0.00041   0.00003   0.00003   0.00006   3.12740
    D9       -0.02144   0.00041   0.00002   0.00003   0.00006  -0.02138
   D10        3.12728   0.00041   0.00003   0.00001   0.00005   3.12732
   D11       -3.12441  -0.00041  -0.00000   0.00006   0.00006  -3.12436
   D12        0.02430  -0.00041   0.00001   0.00004   0.00005   0.02435
         Item               Value     Threshold  Converged?
 Maximum Force            0.000008     0.000450     YES
 RMS     Force            0.000003     0.000300     YES
 Maximum Displacement     0.000101     0.001800     YES
 RMS     Displacement     0.000038     0.001200     YES
 Predicted change in Energy=-8.128314D-10
 Optimization completed.
    -- Stationary point found.
                           ----------------------------
                           !   Optimized Parameters   !
                           ! (Angstroms and Degrees)  !
 --------------------------                            --------------------------
 ! Name  Definition              Value          Derivative Info.                !
 --------------------------------------------------------------------------------
 ! R1    R(1,2)                  1.09           -DE/DX =    0.0                 !
 ! R2    R(1,3)                  1.457          -DE/DX =    0.0                 !
 ! R3    R(1,8)                  1.341          -DE/DX =    0.0                 !
 ! R4    R(3,4)                  1.09           -DE/DX =    0.0                 !
 ! R5    R(3,5)                  1.341          -DE/DX =    0.0                 !
 ! R6    R(5,6)                  1.088          -DE/DX =    0.0                 !
 ! R7    R(5,7)                  1.086          -DE/DX =    0.0                 !
 ! R8    R(8,9)                  1.088          -DE/DX =    0.0                 !
 ! R9    R(8,10)                 1.086          -DE/DX =    0.0                 !
 ! A1    A(2,1,3)              116.2531         -DE/DX =    0.0                 !
 ! A2    A(2,1,8)              119.4092         -DE/DX =    0.0                 !
 ! A3    A(3,1,8)              124.3037         -DE/DX =    0.0                 !
 ! A4    A(1,3,4)              116.2519         -DE/DX =    0.0                 !
 ! A5    A(1,3,5)              124.2987         -DE/DX =    0.0                 !
 ! A6    A(4,3,5)              119.4152         -DE/DX =    0.0                 !
 ! A7    A(3,5,6)              121.5498         -DE/DX =    0.0                 !
 ! A8    A(3,5,7)              121.83           -DE/DX =    0.0                 !
 ! A9    A(6,5,7)              116.619          -DE/DX =    0.0                 !
 ! A10   A(1,8,9)              121.5498         -DE/DX =    0.0                 !
 ! A11   A(1,8,10)             121.83           -DE/DX =    0.0                 !
 ! A12   A(9,8,10)             116.619          -DE/DX =    0.0                 !
 ! D1    D(2,1,3,4)           -174.2876         -DE/DX =    0.0                 !
 ! D2    D(2,1,3,5)              7.8614         -DE/DX =   -0.0008              !
 ! D3    D(8,1,3,4)              7.8509         -DE/DX =   -0.0008              !
 ! D4    D(8,1,3,5)           -170.0001         -DE/DX =   -0.0016              !
 ! D5    D(2,1,8,9)           -179.0202         -DE/DX =   -0.0004              !
 ! D6    D(2,1,8,10)             1.3851         -DE/DX =   -0.0004              !
 ! D7    D(3,1,8,9)             -1.2219         -DE/DX =    0.0004              !
 ! D8    D(3,1,8,10)           179.1834         -DE/DX =    0.0004              !
 ! D9    D(1,3,5,6)             -1.2282         -DE/DX =    0.0004              !
 ! D10   D(1,3,5,7)            179.1797         -DE/DX =    0.0004              !
 ! D11   D(4,3,5,6)           -179.0156         -DE/DX =   -0.0004              !
 ! D12   D(4,3,5,7)              1.3923         -DE/DX =   -0.0004              !
 --------------------------------------------------------------------------------
 Iteration  1 RMS(Cart)=  0.03235493 RMS(Int)=  0.02163850
 Iteration  2 RMS(Cart)=  0.00094169 RMS(Int)=  0.02163178
 Iteration  3 RMS(Cart)=  0.00000696 RMS(Int)=  0.02163178
 Iteration  4 RMS(Cart)=  0.00000023 RMS(Int)=  0.02163178
 Iteration  1 RMS(Cart)=  0.01646855 RMS(Int)=  0.01095480
 Iteration  2 RMS(Cart)=  0.00837253 RMS(Int)=  0.01224335
 Iteration  3 RMS(Cart)=  0.00424591 RMS(Int)=  0.01370892
 Iteration  4 RMS(Cart)=  0.00214996 RMS(Int)=  0.01459603
 Iteration  5 RMS(Cart)=  0.00108775 RMS(Int)=  0.01507460
 Iteration  6 RMS(Cart)=  0.00055010 RMS(Int)=  0.01532341
 Iteration  7 RMS(Cart)=  0.00027814 RMS(Int)=  0.01545085
 Iteration  8 RMS(Cart)=  0.00014061 RMS(Int)=  0.01551568
 Iteration  9 RMS(Cart)=  0.00007108 RMS(Int)=  0.01554856
 Iteration 10 RMS(Cart)=  0.00003593 RMS(Int)=  0.01556520
 Iteration 11 RMS(Cart)=  0.00001816 RMS(Int)=  0.01557362
 Iteration 12 RMS(Cart)=  0.00000918 RMS(Int)=  0.01557788
 Iteration 13 RMS(Cart)=  0.00000464 RMS(Int)=  0.01558004
 Iteration 14 RMS(Cart)=  0.00000235 RMS(Int)=  0.01558112
 Iteration 15 RMS(Cart)=  0.00000119 RMS(Int)=  0.01558167
 Iteration 16 RMS(Cart)=  0.00000060 RMS(Int)=  0.01558195
 GradGradGradGradGradGradGradGradGradGradGradGradGradGradGradGradGradGrad

                          Input orientation:                          
 ---------------------------------------------------------------------
 Center     Atomic      Atomic             Coordinates (Angstroms)
 Number     Number       Type             X           Y           Z
 ---------------------------------------------------------------------
      1          6           0       -0.323235    0.652824    0.137155
      2          1           0       -1.412100    0.654044    0.186967
      3          6           0        0.323303   -0.652871    0.137204
      4          1           0        1.412163   -0.654070    0.186947
      5          6           0       -0.321318   -1.813221   -0.055467
      6          1           0       -1.402886   -1.851937   -0.167880
      7          1           0        0.206686   -2.761201   -0.100798
      8          6           0        0.321300    1.813231   -0.055466
      9          1           0        1.402865    1.852032   -0.167875
     10          1           0       -0.206779    2.761169   -0.100788
 ---------------------------------------------------------------------
                    Distance matrix (angstroms):
                    1          2          3          4          5
     1  C    0.000000
     2  H    1.090005   0.000000
     3  C    1.457000   2.173046   0.000000
     4  H    2.173030   3.112495   1.089996   0.000000
     5  C    2.473558   2.708501   1.341295   2.099370   0.000000
     6  H    2.744544   2.530996   2.123809   3.079819   1.088083
     7  H    3.463091   3.790406   2.124924   2.444580   1.086051
     8  C    1.341294   2.099324   2.473617   2.708564   3.682949
     9  H    2.123808   3.079791   2.744642   2.531113   4.052101
    10  H    2.124923   2.444499   3.463133   3.790465   4.576049
                    6          7          8          9         10
     6  H    0.000000
     7  H    1.849860   0.000000
     8  C    4.052025   4.576091   0.000000
     9  H    4.646678   4.766262   1.088083   0.000000
    10  H    4.766122   5.537826   1.086052   1.849860   0.000000
 Stoichiometry    C4H6
 Framework group  C1[X(C4H6)]
 Deg. of freedom    24
 Full point group                 C1      NOp   1
 Largest Abelian subgroup         C1      NOp   1
 Largest concise Abelian subgroup C1      NOp   1
                         Standard orientation:                         
 ---------------------------------------------------------------------
 Center     Atomic      Atomic             Coordinates (Angstroms)
 Number     Number       Type             X           Y           Z
 ---------------------------------------------------------------------
      1          6           0        0.611496    0.395912    0.109917
      2          1           0        0.487951    1.477747    0.159730
      3          6           0       -0.611523   -0.395968    0.109966
      4          1           0       -0.487960   -1.477794    0.159709
      5          6           0       -1.838090    0.111462   -0.082705
      6          1           0       -2.000471    1.181471   -0.195118
      7          1           0       -2.719331   -0.521680   -0.128036
      8          6           0        1.838108   -0.111424   -0.082703
      9          1           0        2.000574   -1.181421   -0.195112
     10          1           0        2.719299    0.521786   -0.128026
 ---------------------------------------------------------------------
[...]
    A5        2.16962   0.00000   0.00001   0.00000   0.00001   2.16963
    A6        2.08467  -0.00001   0.00001  -0.00005  -0.00004   2.08463
    A7        2.12164  -0.00002  -0.00003  -0.00015  -0.00018   2.12146
    A8        2.12658  -0.00003  -0.00003  -0.00018  -0.00021   2.12637
    A9        2.03497   0.00005   0.00006   0.00033   0.00039   2.03536
   A10        2.12158  -0.00001  -0.00001  -0.00010  -0.00011   2.12147
   A11        2.12652  -0.00002  -0.00003  -0.00015  -0.00017   2.12635
   A12        2.03509   0.00003   0.00004   0.00024   0.00029   2.03537
    D1       -0.00016   0.00000   0.00046  -0.00017   0.00029   0.00013
    D2       -3.14137  -0.00001   0.00013  -0.00027  -0.00014  -3.14151
    D3        3.14122   0.00001   0.00033   0.00010   0.00043  -3.14154
    D4        0.00000  -0.00000   0.00000   0.00000  -0.00000   0.00000
    D5        3.14142   0.00000  -0.00002   0.00016   0.00013   3.14156
    D6       -0.00013   0.00000  -0.00005   0.00013   0.00008  -0.00004
    D7        0.00006   0.00000   0.00010  -0.00012  -0.00001   0.00005
    D8       -3.14149  -0.00000   0.00008  -0.00015  -0.00006  -3.14155
    D9       -0.00019   0.00000   0.00014   0.00007   0.00021   0.00002
   D10        3.14150   0.00000   0.00013  -0.00001   0.00012  -3.14157
   D11       -3.14139  -0.00000  -0.00020  -0.00004  -0.00024   3.14155
   D12        0.00030  -0.00001  -0.00021  -0.00012  -0.00033  -0.00003
         Item               Value     Threshold  Converged?
 Maximum Force            0.000147     0.000450     YES
 RMS     Force            0.000029     0.000300     YES
 Maximum Displacement     0.000580     0.001800     YES
 RMS     Displacement     0.000219     0.001200     YES
 Predicted change in Energy=-6.203917D-08
 Optimization completed.
    -- Stationary point found.
                           ----------------------------
                           !   Optimized Parameters   !
                           ! (Angstroms and Degrees)  !
 --------------------------                            --------------------------
 ! Name  Definition              Value          Derivative Info.                !
 --------------------------------------------------------------------------------
 ! R1    R(1,2)                  1.09           -DE/DX =    0.0                 !
 ! R2    R(1,3)                  1.4573         -DE/DX =   -0.0001              !
 ! R3    R(1,8)                  1.341          -DE/DX =    0.0                 !
 ! R4    R(3,4)                  1.09           -DE/DX =    0.0                 !
 ! R5    R(3,5)                  1.341          -DE/DX =    0.0                 !
 ! R6    R(5,6)                  1.088          -DE/DX =    0.0                 !
 ! R7    R(5,7)                  1.086          -DE/DX =    0.0                 !
 ! R8    R(8,9)                  1.088          -DE/DX =    0.0                 !
 ! R9    R(8,10)                 1.086          -DE/DX =    0.0                 !
 ! A1    A(2,1,3)              116.2463         -DE/DX =    0.0                 !
 ! A2    A(2,1,8)              119.4424         -DE/DX =    0.0                 !
 ! A3    A(3,1,8)              124.3113         -DE/DX =    0.0                 !
 ! A4    A(1,3,4)              116.2476         -DE/DX =    0.0                 !
 ! A5    A(1,3,5)              124.3099         -DE/DX =    0.0                 !
 ! A6    A(4,3,5)              119.4426         -DE/DX =    0.0                 !
 ! A7    A(3,5,6)              121.5609         -DE/DX =    0.0                 !
 ! A8    A(3,5,7)              121.8439         -DE/DX =    0.0                 !
 ! A9    A(6,5,7)              116.5951         -DE/DX =    0.0                 !
 ! A10   A(1,8,9)              121.5574         -DE/DX =    0.0                 !
 ! A11   A(1,8,10)             121.8407         -DE/DX =    0.0                 !
 ! A12   A(9,8,10)             116.6019         -DE/DX =    0.0                 !
 ! D1    D(2,1,3,4)             -0.0089         -DE/DX =    0.0                 !
 ! D2    D(2,1,3,5)           -179.9872         -DE/DX =    0.0                 !
 ! D3    D(8,1,3,4)           -180.0216         -DE/DX =    0.0                 !
 ! D4    D(8,1,3,5)              0.0002         -DE/DX =    0.0                 !
 ! D5    D(2,1,8,9)            179.9904         -DE/DX =    0.0                 !
 ! D6    D(2,1,8,10)            -0.0073         -DE/DX =    0.0                 !
 ! D7    D(3,1,8,9)              0.0034         -DE/DX =    0.0                 !
 ! D8    D(3,1,8,10)          -179.9942         -DE/DX =    0.0                 !
 ! D9    D(1,3,5,6)             -0.0109         -DE/DX =    0.0                 !
 ! D10   D(1,3,5,7)           -180.0053         -DE/DX =    0.0                 !
 ! D11   D(4,3,5,6)            180.0115         -DE/DX =    0.0                 !
 ! D12   D(4,3,5,7)              0.0171         -DE/DX =    0.0                 !
 --------------------------------------------------------------------------------
 Summary of Optimized Potential Surface Scan (add -0.0 to energies):
                           1         2         3         4         5
     Eigenvalues --    -0.00009   0.00019   0.00105   0.00247   0.00442
           R1           1.09047   1.09000   1.09001   1.09003   1.09004
           R2           1.45749   1.45700   1.45699   1.45700   1.45696
           R3           1.34056   1.34100   1.34100   1.34101   1.34101
           R4           1.09047   1.08999   1.08998   1.08995   1.08992
           R5           1.34056   1.34100   1.34101   1.34101   1.34102
           R6           1.08792   1.08800   1.08800   1.08800   1.08800
           R7           1.08580   1.08600   1.08600   1.08600   1.08600
           R8           1.08792   1.08800   1.08800   1.08800   1.08800
           R9           1.08580   1.08600   1.08600   1.08600   1.08600
           A1         116.24619 116.25315 116.26234 116.23763 116.25910
           A2         119.44266 119.40916 119.32253 119.21825 119.08867
           A3         124.31115 124.30375 124.28565 124.27904 124.25583
           A4         116.24619 116.25186 116.25711 116.22572 116.22884
           A5         124.31115 124.29870 124.26575 124.22806 124.16786
           A6         119.44266 119.41517 119.34209 119.25233 119.12483
           A7         121.54594 121.54979 121.54872 121.54599 121.54607
           A8         121.83156 121.83004 121.82926 121.82665 121.82819
           A9         116.62249 116.61899 116.61737 116.61803 116.61194
           A10        121.54594 121.54980 121.54875 121.54591 121.54509
           A11        121.83156 121.83005 121.82930 121.82635 121.82631
           A12        116.62249 116.61899 116.61743 116.61798 116.61160
           D1         180.00000-174.28761-168.44385-162.27219-155.34607
           D2           0.00000   7.86140  15.82194  24.02050  32.68431
           D3           0.00000   7.85095  15.73429  23.70740  31.96970
           D4         180.00000-170.00005-159.99992-149.99990-139.99992
           D5         180.00000-179.02017-178.08632-177.27275-176.71884
           D6           0.00000   1.38505   2.71371   3.90258   4.83225
           D7           0.00000  -1.22187  -2.38401  -3.41879  -4.22770
           D8         180.00000 179.18335 178.41602 177.75654 177.32340
           D9           0.00000  -1.22823  -2.43273  -3.56702  -4.51561
           D10        180.00000 179.17969 178.37808 177.58205 176.88141
           D11        180.00000-179.01561-178.04384-177.09626-176.26795
           D12          0.00000   1.39231   2.76698   4.05280   5.12907
                           6         7         8         9        10
     Eigenvalues --     0.00673   0.00912   0.01104   0.01190   0.01161
           R1           1.09004   1.09003   1.09000   1.09000   1.09000
           R2           1.45700   1.45697   1.45703   1.45699   1.45701
           R3           1.34101   1.34100   1.34099   1.34100   1.34100
           R4           1.08990   1.08992   1.08998   1.09001   1.09000
           R5           1.34103   1.34102   1.34100   1.34099   1.34100
           R6           1.08800   1.08800   1.08800   1.08800   1.08800
           R7           1.08600   1.08600   1.08600   1.08600   1.08600
           R8           1.08800   1.08800   1.08800   1.08800   1.08800
           R9           1.08600   1.08600   1.08600   1.08600   1.08600
           A1         116.24280 116.25420 116.24854 116.24456 116.24782
           A2         119.03685 119.12431 119.37556 119.45871 119.42435
           A3         124.23973 124.24305 124.26989 124.29644 124.30216
           A4         116.22144 116.23942 116.24137 116.24443 116.24317
           A5         124.13546 124.14713 124.24077 124.30228 124.29916
           A6         119.04293 119.07426 119.30855 119.44587 119.42408
           A7         121.54201 121.54462 121.54632 121.55053 121.54925
           A8         121.82393 121.82684 121.82755 121.83069 121.82909
           A9         116.61340 116.60990 116.61885 116.61851 116.62053
           A10        121.54343 121.54643 121.54757 121.55062 121.54933
           A11        121.82495 121.82804 121.82833 121.83059 121.82940
           A12        116.61500 116.61239 116.62037 116.61878 116.62037
           D1        -147.05024-135.67205-119.08905-101.19575 -86.01336
           D2          41.94440  52.85374  66.22121  79.80398  91.85975
           D3          41.00548  51.47430  64.68983  79.00041  92.12697
           D4        -129.99987-119.99991-109.99991 -99.99986 -89.99992
           D5        -176.31798-176.73849-178.28060-179.92303 179.14428
           D6           5.21563   4.62478   2.44616   0.12305  -1.21098
           D7          -4.58356  -4.07627  -2.17006  -0.12510   1.05923
           D8         176.95005 177.28700 178.55670 179.92098-179.29602
           D9          -5.11203  -4.85190  -3.03351  -0.57332   1.20528
           D10        176.59765 176.77208 177.98163 179.61870-179.19322
           D11       -175.88040-176.10036-177.57089-179.54363 179.01507
           D12          5.82928   5.52362   3.44425   0.64839  -1.38343
                          11        12        13        14        15
     Eigenvalues --     0.01049   0.00894   0.00741   0.00624   0.00562
           R1           1.09001   1.09001   1.09001   1.09001   1.09001
           R2           1.45698   1.45702   1.45695   1.45709   1.45691
           R3           1.34100   1.34100   1.34100   1.34100   1.34100
           R4           1.08999   1.08998   1.08999   1.09000   1.09000
           R5           1.34100   1.34101   1.34100   1.34100   1.34101
           R6           1.08800   1.08800   1.08800   1.08800   1.08800
           R7           1.08600   1.08600   1.08600   1.08600   1.08600
           R8           1.08800   1.08800   1.08800   1.08800   1.08800
           R9           1.08600   1.08600   1.08600   1.08600   1.08600
           A1         116.24101 116.24032 116.24272 116.24459 116.25263
           A2         119.37944 119.34513 119.32158 119.32975 119.35469
           A3         124.29943 124.28822 124.28980 124.28977 124.28653
           A4         116.23911 116.24926 116.24453 116.24906 116.25403
           A5         124.27951 124.27935 124.28774 124.29660 124.30716
           A6         119.38867 119.36470 119.39037 119.41996 119.43239
           A7         121.55002 121.54732 121.55142 121.54301 121.55840
           A8         121.83095 121.82668 121.83295 121.81988 121.84094
           A9         116.61588 116.62242 116.61300 116.63594 116.60044
           A10        121.55013 121.54724 121.55028 121.54311 121.55459
           A11        121.83039 121.82740 121.83105 121.82213 121.83740
           A12        116.61677 116.62098 116.61364 116.63012 116.60441
           D1         -73.18033 -62.08236 -52.33696 -43.56826 -35.28857
           D2         103.28575 114.12611 124.43482 134.27984 143.78221
           D3         103.53405 113.79161 123.22827 132.15185 140.92918
           D4         -79.99987 -69.99992 -59.99995 -50.00006 -40.00004
           D5         178.48173 178.10636 177.96831 178.03584 178.25919
           D6          -2.13686  -2.68065  -2.87501  -2.77404  -2.45432
           D7           1.86380   2.35219   2.53073   2.43919   2.15118
           D8        -178.75478-178.43483-178.31258-178.37069-178.56234
           D9           2.00884   2.15145   1.83663   1.22384   0.53063
           D10       -178.65897-178.56080-178.77242-179.18143-179.64573
           D11        178.37077 178.24941 178.51339 179.00807 179.57377
           D12         -2.29704  -2.46284  -2.09566  -1.39720  -0.60259
                          16        17        18        19
     Eigenvalues --     0.00552   0.00577   0.00609   0.00623
           R1           1.09001   1.09000   1.09000   1.09000
           R2           1.45694   1.45711   1.45678   1.45729
           R3           1.34100   1.34100   1.34100   1.34100
           R4           1.09000   1.09000   1.09000   1.09000
           R5           1.34100   1.34100   1.34100   1.34099
           R6           1.08800   1.08800   1.08800   1.08800
           R7           1.08600   1.08600   1.08600   1.08600
           R8           1.08800   1.08800   1.08800   1.08800
           R9           1.08600   1.08600   1.08600   1.08600
           A1         116.24758 116.24991 116.25422 116.24627
           A2         119.38125 119.40766 119.42927 119.44245
           A3         124.29956 124.30420 124.30526 124.31128
           A4         116.24726 116.25255 116.24940 116.24759
           A5         124.31106 124.30670 124.30853 124.30985
           A6         119.44153 119.43656 119.43872 119.44256
           A7         121.54716 121.55642 121.53987 121.56094
           A8         121.82805 121.83550 121.82057 121.84393
           A9         116.62478 116.60792 116.63944 116.59512
           A10        121.54825 121.55215 121.54514 121.55741
           A11        121.82677 121.83559 121.82055 121.84074
           A12        116.62249 116.61094 116.63393 116.60185
           D1         -27.03786 -18.48172  -9.44191  -0.00890
           D2         153.10661 162.26983 171.23082-179.98716
           D3         149.85565 159.24857 169.32744-180.02159
           D4         -29.99987 -19.99988  -9.99983   0.00015
           D5         178.58015 178.96275 179.43393 179.99037
           D6          -2.01357  -1.47007  -0.79678  -0.00727
           D7           1.77769   1.29952   0.70115   0.00344
           D8        -178.81603-179.13329-179.52956-179.99421
           D9          -0.09114  -0.43760  -0.38426  -0.01086
           D10        179.94227 179.71304 179.74545-180.00526
           D11       -179.94235-179.66366-179.69145 180.01154
           D12          0.09106   0.48698   0.43826   0.01713
 GradGradGradGradGradGradGradGradGradGradGradGradGradGradGradGradGradGrad

                          Input orientation:                          
 ---------------------------------------------------------------------
 Center     Atomic      Atomic             Coordinates (Angstroms)
 Number     Number       Type             X           Y           Z
 ---------------------------------------------------------------------
      1          6           0       -0.062923    0.726122    0.658076
      2          1           0       -0.104729    1.206640    1.635550
      3          6           0        0.061771   -0.725819    0.658526
      4          1           0        0.102610   -1.205837    1.636287
      5          6           0        0.127330   -1.479189   -0.448902
      6          1           0        0.089888   -1.036305   -1.441976
      7          1           0        0.220216   -2.560186   -0.401842
      8          6           0       -0.126724    1.478988   -0.449805
      9          1           0       -0.087931    1.035569   -1.442588
     10          1           0       -0.219507    2.560019   -0.403327
 ---------------------------------------------------------------------
                    Distance matrix (angstroms):
                    1          2          3          4          5
     1  C    0.000000
     2  H    1.090000   0.000000
     3  C    1.457286   2.171796   0.000000
     4  H    2.171811   2.421371   1.090001   0.000000
     5  C    2.474872   3.407707   1.340992   2.103175   0.000000
     6  H    2.745855   3.813115   2.123511   3.082954   1.088000
     7  H    3.464594   4.294826   2.124708   2.449910   1.086000
     8  C    1.340999   2.103180   2.474895   3.407736   2.969067
     9  H    2.123481   3.082934   2.745829   3.813093   2.712518
    10  H    2.124682   2.449863   3.464589   4.294817   4.054328
                    6          7          8          9         10
     6  H    0.000000
     7  H    1.849615   0.000000
     8  C    2.712568   4.054330   0.000000
     9  H    2.079491   3.756003   1.088000   0.000000
    10  H    3.756070   5.139052   1.086000   1.849682   0.000000
 Stoichiometry    C4H6
 Framework group  C1[X(C4H6)]
 Deg. of freedom    24
 Full point group                 C1      NOp   1
 Largest Abelian subgroup         C1      NOp   1
 Largest concise Abelian subgroup C1      NOp   1
                         Standard orientation:                         
 ---------------------------------------------------------------------
 Center     Atomic      Atomic             Coordinates (Angstroms)
 Number     Number       Type             X           Y           Z
 ---------------------------------------------------------------------
      1          6           0        0.728641    0.588646   -0.000057
      2          1           0        1.210680    1.566265    0.000095
      3          6           0       -0.728644    0.588658   -0.000059
      4          1           0       -1.210690    1.566274    0.000243
      5          6           0       -1.484528   -0.518997    0.000017
      6          1           0       -1.039767   -1.511938   -0.000089
      7          1           0       -2.569522   -0.472263    0.000097
      8          6           0        1.484538   -0.519009    0.000018
      9          1           0        1.039724   -1.511925    0.000029
     10          1           0        2.569529   -0.472205    0.000110
 ---------------------------------------------------------------------
 Rotational constants (GHZ):          20.4026778           6.0109784           4.6430549
 1\1\GINC-CEREZOUNI\Scan\RExternal='gromacs_link.sh -p joyce.new.top'\Z
 DO\C4H6\SONATAK\14-May-2019\0\\# Opt(modredundant,nomicro) External="g
 romacs_link.sh -p joyce.new.top"\\Butadiene MM scan using external key
 word in gaussian\\0,1\C,-0.062923294,0.7261217427,0.658076331\H,-0.104
 7288672,1.2066396547,1.6355502301\C,0.0617708729,-0.7258192283,0.65852
 60524\H,0.1026096191,-1.2058374261,1.6362869788\C,0.1273299785,-1.4791
 890395,-0.4489018805\H,0.0898883361,-1.0363052274,-1.4419759813\H,0.22
 02159337,-2.5601859337,-0.4018416684\C,-0.1267242618,1.4789880762,-0.4
 498050958\H,-0.087931477,1.0355687075,-1.4425879918\H,-0.2195068403,2.
 5600186738,-0.4033269746\\Version=ES64L-G16RevA.03\HF=-0.0000906,0.000
 1933,0.0010503,0.0024742,0.0044154,0.0067294,0.0091179,0.0110414,0.011
 9009,0.0116142,0.0104854,0.0089388,0.0074091,0.0062418,0.0056162,0.005
 5182,0.0057665,0.0060882,0.0062305\RMSD=0.000e+00,0.000e+00,0.000e+00,
 0.000e+00,0.000e+00,0.000e+00,0.000e+00,0.000e+00,0.000e+00,0.000e+00,
 0.000e+00,0.000e+00,0.000e+00,0.000e+00,0.000e+00,0.000e+00,0.000e+00,
 0.000e+00,0.000e+00\PG=C01 [X(C4H6)]\\@


 DO NOT LET SELFISH MEN OR GREEDY INTERESTS SKIN YOUR COUNTRY OF ITS
 BEAUTY, ITS RICHES, OR ITS ROMANCE. -- THEODORE ROOSEVELT
 Job cpu time:       0 days  0 hours  0 minutes 41.6 seconds.
 Elapsed time:       0 days  0 hours  0 minutes 37.4 seconds.
 File lengths (MBytes):  RWF=      6 Int=      0 D2E=      0 Chk=      2 Scr=      1
 Normal termination of Gaussian 16 at Tue May 14 14:02:45 2019.
