FCHK created with read_scan from butadiene_scanMM.fchk
Scan      RExternal='gromacs_link.sh  -p joyce.new.top'               ZDO       
Number of atoms                            I               10
Charge                                     I                0
Multiplicity                               I                1
Atomic numbers                             I   N=          10
           6           1           6           1           6           1
           1           6           1           1
Nuclear charges                            R   N=          10
  6.00000000E+00  1.00000000E+00  6.00000000E+00  1.00000000E+00  6.00000000E+00
  1.00000000E+00  1.00000000E+00  6.00000000E+00  1.00000000E+00  1.00000000E+00
Current cartesian coordinates              R   N=          30
 -6.16188667E-01  1.23158554E+00  0.00000000E+00 -2.67684619E+00  1.21958767E+00
  0.00000000E+00  6.16188667E-01 -1.23158554E+00  0.00000000E+00  2.67684619E+00
 -1.21958767E+00  0.00000000E+00 -6.16188667E-01 -3.44490647E+00  0.00000000E+00
 -2.67020191E+00 -3.53231954E+00  0.00000000E+00  3.80433994E-01 -5.23847577E+00
  0.00000000E+00  6.16188667E-01  3.44490647E+00  0.00000000E+00  2.67020191E+00
  3.53231954E+00  0.00000000E+00 -3.80433994E-01  5.23847577E+00  0.00000000E+00
Integer atomic weights                     I   N=          30
           0           1           0          -2           1           0
           0          -1           0           2          -1           0
           0          -3           0          -2          -3           0
           0          -5           0           0           3           0
           2           3           0           0           5           0
Real atomic weights                        R   N=          30
 -6.16188667E-01  1.23158554E+00  0.00000000E+00 -2.67684619E+00  1.21958767E+00
  0.00000000E+00  6.16188667E-01 -1.23158554E+00  0.00000000E+00  2.67684619E+00
 -1.21958767E+00  0.00000000E+00 -6.16188667E-01 -3.44490647E+00  0.00000000E+00
 -2.67020191E+00 -3.53231954E+00  0.00000000E+00  3.80433994E-01 -5.23847577E+00
  0.00000000E+00  6.16188667E-01  3.44490647E+00  0.00000000E+00  2.67020191E+00
  3.53231954E+00  0.00000000E+00 -3.80433994E-01  5.23847577E+00  0.00000000E+00
Total Energy                               R     -9.059265740000000E-05
Cartesian Gradient                         R   N=          30
  4.18855237E-04  6.15905489E-04 -1.53170161E-19 -3.09688116E-04 -8.56400479E-06
  2.51346600E-19 -4.18855237E-04 -6.15905489E-04 -3.34757271E-19  3.09688116E-04
  8.56400479E-06  3.03814863E-19  2.27345675E-04  2.48478502E-04  3.31695682E-19
  5.34705854E-05  9.02431141E-06  3.13241494E-19 -6.59706975E-05  1.19561005E-04
 -6.55381649E-19 -2.27345675E-04 -2.48478502E-04  2.85350597E-19 -5.34705854E-05
 -9.02431141E-06  3.13241494E-19  6.59706975E-05 -1.19561005E-04 -6.55381649E-19
