FCHK created with read_scan from butadiene_scanMM.fchk
Scan      RExternal='gromacs_link.sh  -p joyce.new.top'               ZDO       
Number of atoms                            I               10
Charge                                     I                0
Multiplicity                               I                1
Atomic numbers                             I   N=          10
           6           1           6           1           6           1
           1           6           1           1
Nuclear charges                            R   N=          10
  6.00000000E+00  1.00000000E+00  6.00000000E+00  1.00000000E+00  6.00000000E+00
  1.00000000E+00  1.00000000E+00  6.00000000E+00  1.00000000E+00  1.00000000E+00
Current cartesian coordinates              R   N=          30
  1.24724322E+00  7.25349301E-01 -5.71097780E-01  1.47188998E+00  1.93604222E+00
 -2.22230941E+00 -1.24717066E+00  7.06292502E-01  5.94360109E-01 -1.46425016E+00
  1.84035384E+00  2.30013189E+00 -3.22023407E+00 -6.24265855E-01 -2.76476054E-01
 -3.07180014E+00 -1.78842431E+00 -1.96465055E+00 -5.04587562E+00 -5.91639235E-01
  6.60364637E-01  3.21947050E+00 -6.34992849E-01  2.54448288E-01  3.06644480E+00
 -1.86580107E+00  1.89424204E+00  5.04773722E+00 -5.64830035E-01 -6.75185999E-01
Integer atomic weights                     I   N=          30
           1           0           0           1           1          -2
          -1           0           0          -1           1           2
          -3           0           0          -3          -1          -1
          -5           0           0           3           0           0
           3          -1           1           5           0           0
Real atomic weights                        R   N=          30
  1.24724322E+00  7.25349301E-01 -5.71097780E-01  1.47188998E+00  1.93604222E+00
 -2.22230941E+00 -1.24717066E+00  7.06292502E-01  5.94360109E-01 -1.46425016E+00
  1.84035384E+00  2.30013189E+00 -3.22023407E+00 -6.24265855E-01 -2.76476054E-01
 -3.07180014E+00 -1.78842431E+00 -1.96465055E+00 -5.04587562E+00 -5.91639235E-01
  6.60364637E-01  3.21947050E+00 -6.34992849E-01  2.54448288E-01  3.06644480E+00
 -1.86580107E+00  1.89424204E+00  5.04773722E+00 -5.64830035E-01 -6.75185999E-01
Total Energy                               R      1.190094260000000E-02
Cartesian Gradient                         R   N=          30
  3.01450647E-03 -7.03423809E-03  5.98694883E-03 -2.66860130E-04  1.07497255E-03
 -2.18586184E-03 -2.72316168E-03  7.71909484E-03  5.68647370E-03  7.26600382E-05
 -1.30169543E-03 -2.25015723E-03  7.85699737E-04 -2.58886696E-03 -2.93821868E-03
  6.20142132E-05 -5.48155482E-05 -2.23064691E-04  1.26614149E-04 -2.61468589E-04
 -3.68989023E-04 -8.86343184E-04  2.16038555E-03 -3.09869513E-03 -6.06517153E-05
  4.40989782E-05 -2.25140686E-04 -1.24476076E-04  2.42540752E-04 -3.83273080E-04
