FCHK created with read_scan from butadiene_scanMM.fchk
Scan      RExternal='gromacs_link.sh  -p joyce.new.top'               ZDO       
Number of atoms                            I               10
Charge                                     I                0
Multiplicity                               I                1
Atomic numbers                             I   N=          10
           6           1           6           1           6           1
           1           6           1           1
Nuclear charges                            R   N=          10
  6.00000000E+00  1.00000000E+00  6.00000000E+00  1.00000000E+00  6.00000000E+00
  1.00000000E+00  1.00000000E+00  6.00000000E+00  1.00000000E+00  1.00000000E+00
Current cartesian coordinates              R   N=          30
  1.20650051E+00  6.65377048E-01  5.64098239E-01  1.18725780E+00  2.60130467E+00
  1.26753299E+00 -1.20764567E+00 -6.58380693E-01  5.74751282E-01 -1.17921961E+00
 -2.59865124E+00  1.26516204E+00 -3.32864272E+00  2.42610110E-01 -4.79553308E-01
 -3.40581375E+00  2.12626557E+00 -1.29999641E+00 -5.06708282E+00 -8.47459890E-01
 -5.15151039E-01  3.32865893E+00 -2.47338034E-01 -4.77634288E-01  3.40193391E+00
 -2.13358431E+00 -1.29246078E+00  5.06969819E+00  8.38514625E-01 -5.15058360E-01
Integer atomic weights                     I   N=          30
           1           0           0           1           2           1
          -1           0           0          -1          -2           1
          -3           0           0          -3           2          -1
          -5           0           0           3           0           0
           3          -2          -1           5           0           0
Real atomic weights                        R   N=          30
  1.20650051E+00  6.65377048E-01  5.64098239E-01  1.18725780E+00  2.60130467E+00
  1.26753299E+00 -1.20764567E+00 -6.58380693E-01  5.74751282E-01 -1.17921961E+00
 -2.59865124E+00  1.26516204E+00 -3.32864272E+00  2.42610110E-01 -4.79553308E-01
 -3.40581375E+00  2.12626557E+00 -1.29999641E+00 -5.06708282E+00 -8.47459890E-01
 -5.15151039E-01  3.32865893E+00 -2.47338034E-01 -4.77634288E-01  3.40193391E+00
 -2.13358431E+00 -1.29246078E+00  5.06969819E+00  8.38514625E-01 -5.15058360E-01
Total Energy                               R      9.117944090000000E-03
Cartesian Gradient                         R   N=          30
  3.73076517E-03 -7.67019810E-03  9.43572128E-03  1.34214509E-04  5.19321318E-04
 -2.06605877E-03 -3.33765630E-03  8.13858699E-03  8.96271683E-03 -3.69543294E-04
 -6.49744213E-04 -2.04872522E-03  1.46940764E-03 -3.58395400E-03 -6.41909850E-03
  4.74784164E-05 -1.16929933E-05 -2.25392627E-04  1.07536155E-04 -1.72432576E-04
 -4.20929217E-04 -1.62859617E-03  3.24675593E-03 -6.56939653E-03 -4.71041326E-05
  1.22031843E-05 -2.26872026E-04 -1.06502390E-04  1.71152714E-04 -4.21953106E-04
