FCHK created with read_scan from butadiene_scanMM.fchk
Scan      RExternal='gromacs_link.sh  -p joyce.new.top'               ZDO       
Number of atoms                            I               10
Charge                                     I                0
Multiplicity                               I                1
Atomic numbers                             I   N=          10
           6           1           6           1           6           1
           1           6           1           1
Nuclear charges                            R   N=          10
  6.00000000E+00  1.00000000E+00  6.00000000E+00  1.00000000E+00  6.00000000E+00
  1.00000000E+00  1.00000000E+00  6.00000000E+00  1.00000000E+00  1.00000000E+00
Current cartesian coordinates              R   N=          30
  1.18928899E+00  6.93356260E-01  4.81763591E-01  1.08783272E+00  2.68118480E+00
  1.01219170E+00 -1.19048957E+00 -6.91372100E-01  4.88056922E-01 -1.08367205E+00
 -2.68204344E+00  1.00555923E+00 -3.37595442E+00  2.32947420E-01 -4.01552321E-01
 -3.53457811E+00  2.17488372E+00 -1.05802586E+00 -5.08719412E+00 -8.98591893E-01
 -4.56013773E-01  3.37633753E+00 -2.34190091E-01 -4.00467012E-01  3.53422756E+00
 -2.17621628E+00 -1.05684987E+00  5.08828879E+00  8.96334156E-01 -4.53668512E-01
Integer atomic weights                     I   N=          30
           1           0           0           1           2           1
          -1           0           0          -1          -2           1
          -3           0           0          -3           2          -1
          -5           0           0           3           0           0
           3          -2          -1           5           0           0
Real atomic weights                        R   N=          30
  1.18928899E+00  6.93356260E-01  4.81763591E-01  1.08783272E+00  2.68118480E+00
  1.01219170E+00 -1.19048957E+00 -6.91372100E-01  4.88056922E-01 -1.08367205E+00
 -2.68204344E+00  1.00555923E+00 -3.37595442E+00  2.32947420E-01 -4.01552321E-01
 -3.53457811E+00  2.17488372E+00 -1.05802586E+00 -5.08719412E+00 -8.98591893E-01
 -4.56013773E-01  3.37633753E+00 -2.34190091E-01 -4.00467012E-01  3.53422756E+00
 -2.17621628E+00 -1.05684987E+00  5.08828879E+00  8.96334156E-01 -4.53668512E-01
Total Energy                               R      6.729357700000000E-03
Cartesian Gradient                         R   N=          30
  3.00374354E-03 -6.01381584E-03  9.38581677E-03  1.89437396E-04  3.67457221E-04
 -1.97986466E-03 -2.66370357E-03  6.43276379E-03  8.94564529E-03 -3.91109459E-04
 -4.92341441E-04 -1.93979392E-03  1.21373974E-03 -2.90127402E-03 -6.47821398E-03
  3.55714746E-05  8.59836957E-07 -2.25741314E-04  8.83114306E-05 -1.38575309E-04
 -4.38401842E-04 -1.35187204E-03  2.60654315E-03 -6.60071786E-03 -3.59312466E-05
 -1.04338719E-07 -2.28744453E-04 -8.81751808E-05  1.38493680E-04 -4.39980001E-04
