FCHK created with read_scan from butadiene_scanMM.fchk
Scan      RExternal='gromacs_link.sh  -p joyce.new.top'               ZDO       
Number of atoms                            I               10
Charge                                     I                0
Multiplicity                               I                1
Atomic numbers                             I   N=          10
           6           1           6           1           6           1
           1           6           1           1
Nuclear charges                            R   N=          10
  6.00000000E+00  1.00000000E+00  6.00000000E+00  1.00000000E+00  6.00000000E+00
  1.00000000E+00  1.00000000E+00  6.00000000E+00  1.00000000E+00  1.00000000E+00
Current cartesian coordinates              R   N=          30
  1.17506516E+00  7.16606539E-01  3.91475612E-01  1.01564421E+00  2.73097360E+00
  7.91500008E-01 -1.17606592E+00 -7.16076732E-01  3.96312446E-01 -1.01275393E+00
 -2.73208808E+00  7.85098117E-01 -3.41694584E+00  2.23839602E-01 -3.22691449E-01
 -3.63828757E+00  2.20176791E+00 -8.38470645E-01 -5.10904057E+00 -9.36001322E-01
 -3.79829187E-01  3.41710895E+00 -2.23900222E-01 -3.23035178E-01  3.63929425E+00
 -2.20229189E+00 -8.36662462E-01  5.11016950E+00  9.34824653E-01 -3.74004415E-01
Integer atomic weights                     I   N=          30
           1           0           0           1           2           0
          -1           0           0          -1          -2           0
          -3           0           0          -3           2           0
          -5           0           0           3           0           0
           3          -2           0           5           0           0
Real atomic weights                        R   N=          30
  1.17506516E+00  7.16606539E-01  3.91475612E-01  1.01564421E+00  2.73097360E+00
  7.91500008E-01 -1.17606592E+00 -7.16076732E-01  3.96312446E-01 -1.01275393E+00
 -2.73208808E+00  7.85098117E-01 -3.41694584E+00  2.23839602E-01 -3.22691449E-01
 -3.63828757E+00  2.20176791E+00 -8.38470645E-01 -5.10904057E+00 -9.36001322E-01
 -3.79829187E-01  3.41710895E+00 -2.23900222E-01 -3.23035178E-01  3.63929425E+00
 -2.20229189E+00 -8.36662462E-01  5.11016950E+00  9.34824653E-01 -3.74004415E-01
Total Energy                               R      4.415398620000000E-03
Cartesian Gradient                         R   N=          30
  2.02345048E-03 -4.10841492E-03  8.59268577E-03  2.02673579E-04  2.57727766E-04
 -1.92433279E-03 -1.75553220E-03  4.46133413E-03  8.23124088E-03 -3.62253124E-04
 -3.68636305E-04 -1.87648412E-03  8.02777318E-04 -2.03258083E-03 -5.79906118E-03
  2.51286134E-05  1.24721567E-05 -2.23181592E-04  6.58015946E-05 -1.08299235E-04
 -4.43863927E-04 -9.05573351E-04  1.78555552E-03 -5.86394107E-03 -2.73436803E-05
 -1.02656760E-05 -2.34142041E-04 -6.91348772E-05  1.11111301E-04 -4.58913885E-04
