FCHK created with read_scan from butadiene_scanMM.fchk
Scan      RExternal='gromacs_link.sh  -p joyce.new.top'               ZDO       
Number of atoms                            I               10
Charge                                     I                0
Multiplicity                               I                1
Atomic numbers                             I   N=          10
           6           1           6           1           6           1
           1           6           1           1
Nuclear charges                            R   N=          10
  6.00000000E+00  1.00000000E+00  6.00000000E+00  1.00000000E+00  6.00000000E+00
  1.00000000E+00  1.00000000E+00  6.00000000E+00  1.00000000E+00  1.00000000E+00
Current cartesian coordinates              R   N=          30
  1.16416907E+00  7.34155588E-01  2.97679652E-01  9.61079292E-01  2.76373315E+00
  5.84995625E-01 -1.16472127E+00 -7.34563168E-01  2.99695458E-01 -9.60321334E-01
 -2.76459976E+00  5.81779515E-01 -3.45006664E+00  2.16288841E-01 -2.43437953E-01
 -3.71903353E+00  2.21856463E+00 -6.25247939E-01 -5.12932249E+00 -9.62500387E-01
 -2.90870578E-01  3.45029094E+00 -2.15937540E-01 -2.43440991E-01  3.72021907E+00
 -2.21809338E+00 -6.25201298E-01  5.12934640E+00  9.63233423E-01 -2.88432324E-01
Integer atomic weights                     I   N=          30
           1           0           0           0           2           0
          -1           0           0           0          -2           0
          -3           0           0          -3           2           0
          -5           0           0           3           0           0
           3          -2           0           5           0           0
Real atomic weights                        R   N=          30
  1.16416907E+00  7.34155588E-01  2.97679652E-01  9.61079292E-01  2.76373315E+00
  5.84995625E-01 -1.16472127E+00 -7.34563168E-01  2.99695458E-01 -9.60321334E-01
 -2.76459976E+00  5.81779515E-01 -3.45006664E+00  2.16288841E-01 -2.43437953E-01
 -3.71903353E+00  2.21856463E+00 -6.25247939E-01 -5.12932249E+00 -9.62500387E-01
 -2.90870578E-01  3.45029094E+00 -2.15937540E-01 -2.43440991E-01  3.72021907E+00
 -2.21809338E+00 -6.25201298E-01  5.12934640E+00  9.63233423E-01 -2.88432324E-01
Total Energy                               R      2.474233330000000E-03
Cartesian Gradient                         R   N=          30
  1.04130112E-03 -2.37298360E-03  7.29315301E-03  1.95929819E-04  1.67995791E-04
 -1.88835760E-03 -8.47923162E-04  2.65755620E-03  7.10111336E-03 -3.11467828E-04
 -2.60384234E-04 -1.86629965E-03  3.78496275E-04 -1.21806507E-03 -4.60395299E-03
  1.37169880E-05  2.19833797E-05 -2.28861354E-04  4.34034189E-05 -8.04899670E-05
 -4.61368800E-04 -4.55920824E-04  1.02566263E-03 -4.65224508E-03 -1.38087954E-05
 -2.18447113E-05 -2.30006174E-04 -4.37281207E-05  8.05540609E-05 -4.63170683E-04
