FCHK created with read_scan from butadiene_scanMM.fchk
Scan      RExternal='gromacs_link.sh  -p joyce.new.top'               ZDO       
Number of atoms                            I               10
Charge                                     I                0
Multiplicity                               I                1
Atomic numbers                             I   N=          10
           6           1           6           1           6           1
           1           6           1           1
Nuclear charges                            R   N=          10
  6.00000000E+00  1.00000000E+00  6.00000000E+00  1.00000000E+00  6.00000000E+00
  1.00000000E+00  1.00000000E+00  6.00000000E+00  1.00000000E+00  1.00000000E+00
Current cartesian coordinates              R   N=          30
  1.35333388E+00  1.04130652E+00 -2.64711941E-01  2.15430883E+00  2.81036037E+00
 -9.51544347E-01 -1.35171939E+00  1.04703090E+00  2.47633721E-01 -2.13286271E+00
  2.79816503E+00  1.00003218E+00 -2.89030412E+00 -9.20961079E-01 -1.78504094E-01
 -2.18276319E+00 -2.69480955E+00 -9.40129461E-01 -4.90097668E+00 -8.29935844E-01
  2.22258163E-01  2.88723091E+00 -9.25157474E-01  1.84705168E-01  2.16752655E+00
 -2.70481301E+00  9.20965360E-01  4.90351954E+00 -8.32280197E-01 -1.86319020E-01
Integer atomic weights                     I   N=          30
           1           1           0           2           2           0
          -1           1           0          -2           2           1
          -2           0           0          -2          -2           0
          -4           0           0           2           0           0
           2          -2           0           4           0           0
Real atomic weights                        R   N=          30
  1.35333388E+00  1.04130652E+00 -2.64711941E-01  2.15430883E+00  2.81036037E+00
 -9.51544347E-01 -1.35171939E+00  1.04703090E+00  2.47633721E-01 -2.13286271E+00
  2.79816503E+00  1.00003218E+00 -2.89030412E+00 -9.20961079E-01 -1.78504094E-01
 -2.18276319E+00 -2.69480955E+00 -9.40129461E-01 -4.90097668E+00 -8.29935844E-01
  2.22258163E-01  2.88723091E+00 -9.25157474E-01  1.84705168E-01  2.16752655E+00
 -2.70481301E+00  9.20965360E-01  4.90351954E+00 -8.32280197E-01 -1.86319020E-01
Total Energy                               R      5.616245420000000E-03
Cartesian Gradient                         R   N=          30
  7.14710774E-04  8.72526730E-04  3.90131927E-03 -3.47866274E-04 -6.59676742E-04
 -1.79961787E-03 -5.64124522E-04  8.36301619E-04 -3.49654049E-03  2.27613741E-04
 -6.64270134E-04  1.57545069E-03 -2.21643743E-04  1.84264741E-04 -5.09842283E-04
  7.65504132E-05 -1.81636289E-04  1.61197007E-04  8.22813696E-05 -1.58957753E-04
  4.38363547E-04  1.82138358E-04  1.13053264E-04  3.33642683E-04 -7.26695112E-05
 -1.81446225E-04 -1.64541375E-04 -7.69910079E-05 -1.60159614E-04 -4.39439839E-04
