FCHK created with read_scan from butadiene_scanMM.fchk
Scan      RExternal='gromacs_link.sh  -p joyce.new.top'               ZDO       
Number of atoms                            I               10
Charge                                     I                0
Multiplicity                               I                1
Atomic numbers                             I   N=          10
           6           1           6           1           6           1
           1           6           1           1
Nuclear charges                            R   N=          10
  6.00000000E+00  1.00000000E+00  6.00000000E+00  1.00000000E+00  6.00000000E+00
  1.00000000E+00  1.00000000E+00  6.00000000E+00  1.00000000E+00  1.00000000E+00
Current cartesian coordinates              R   N=          30
  1.36379876E+00  1.07123774E+00 -2.02934107E-01  2.21420319E+00  2.87466969E+00
 -7.19917270E-01 -1.36229567E+00  1.07652208E+00  1.82583381E-01 -2.19494942E+00
  2.86471210E+00  7.75734990E-01 -2.85447707E+00 -9.46138415E-01 -1.39874402E-01
 -2.09198398E+00 -2.76251445E+00 -7.28610456E-01 -4.88104742E+00 -8.56615396E-01
  1.71095175E-01  2.85167973E+00 -9.49949494E-01  1.47501360E-01  2.07827642E+00
 -2.77112579E+00  7.06421808E-01  4.88326668E+00 -8.59157618E-01 -1.28381647E-01
Integer atomic weights                     I   N=          30
           1           1           0           2           2           0
          -1           1           0          -2           2           0
          -2           0           0          -2          -2           0
          -4           0           0           2           0           0
           2          -2           0           4           0           0
Real atomic weights                        R   N=          30
  1.36379876E+00  1.07123774E+00 -2.02934107E-01  2.21420319E+00  2.87466969E+00
 -7.19917270E-01 -1.36229567E+00  1.07652208E+00  1.82583381E-01 -2.19494942E+00
  2.86471210E+00  7.75734990E-01 -2.85447707E+00 -9.46138415E-01 -1.39874402E-01
 -2.09198398E+00 -2.76251445E+00 -7.28610456E-01 -4.88104742E+00 -8.56615396E-01
  1.71095175E-01  2.85167973E+00 -9.49949494E-01  1.47501360E-01  2.07827642E+00
 -2.77112579E+00  7.06421808E-01  4.88326668E+00 -8.59157618E-01 -1.28381647E-01
Total Energy                               R      5.518154000000000E-03
Cartesian Gradient                         R   N=          30
  8.98696364E-04  1.00506190E-03  6.58364633E-03 -2.52664756E-04 -5.26379702E-04
 -1.85921506E-03 -7.07370216E-04  1.12070895E-03 -6.35057050E-03  1.02761769E-04
 -6.07686160E-04  1.71930306E-03 -3.93290262E-05 -1.63829087E-04  7.83422189E-04
  7.07243238E-05 -1.71802118E-04  1.77290405E-04  6.62077238E-05 -1.24186847E-04
  4.51406038E-04 -1.32987253E-05 -2.37203630E-04 -8.71907963E-04 -6.68051267E-05
 -1.70033692E-04 -1.79990408E-04 -5.89223911E-05 -1.24650822E-04 -4.53391334E-04
