FCHK created with read_scan from butadiene_scanMM.fchk
Scan      RExternal='gromacs_link.sh  -p joyce.new.top'               ZDO       
Number of atoms                            I               10
Charge                                     I                0
Multiplicity                               I                1
Atomic numbers                             I   N=          10
           6           1           6           1           6           1
           1           6           1           1
Nuclear charges                            R   N=          10
  6.00000000E+00  1.00000000E+00  6.00000000E+00  1.00000000E+00  6.00000000E+00
  1.00000000E+00  1.00000000E+00  6.00000000E+00  1.00000000E+00  1.00000000E+00
Current cartesian coordinates              R   N=          30
  1.15619963E+00  7.46944639E-01  2.00219336E-01  9.24474882E-01  2.78517833E+00
  3.86706450E-01 -1.15640230E+00 -7.47234998E-01  2.00981256E-01 -9.24327131E-01
 -2.78546100E+00  3.86433356E-01 -3.47411615E+00  2.10652993E-01 -1.63008427E-01
 -3.77661925E+00  2.22848136E+00 -4.16174375E-01 -5.14475975E+00 -9.80803585E-01
 -1.95929095E-01  3.47422100E+00 -2.10456461E-01 -1.63049043E-01  3.77724053E+00
 -2.22823573E+00 -4.15988920E-01  5.14457765E+00  9.81403580E-01 -1.95906144E-01
Integer atomic weights                     I   N=          30
           1           0           0           0           2           0
          -1           0           0           0          -2           0
          -3           0           0          -3           2           0
          -5           0           0           3           0           0
           3          -2           0           5           0           0
Real atomic weights                        R   N=          30
  1.15619963E+00  7.46944639E-01  2.00219336E-01  9.24474882E-01  2.78517833E+00
  3.86706450E-01 -1.15640230E+00 -7.47234998E-01  2.00981256E-01 -9.24327131E-01
 -2.78546100E+00  3.86433356E-01 -3.47411615E+00  2.10652993E-01 -1.63008427E-01
 -3.77661925E+00  2.22848136E+00 -4.16174375E-01 -5.14475975E+00 -9.80803585E-01
 -1.95929095E-01  3.47422100E+00 -2.10456461E-01 -1.63049043E-01  3.77724053E+00
 -2.22823573E+00 -4.15988920E-01  5.14457765E+00  9.81403580E-01 -1.95906144E-01
Total Energy                               R      1.050272810000000E-03
Cartesian Gradient                         R   N=          30
  2.58028080E-04 -1.02739397E-03  5.76205606E-03  1.71954895E-04  8.70833685E-05
 -1.87014931E-03 -1.31383900E-04  1.22823745E-03  5.69772036E-03 -2.48635713E-04
 -1.52975259E-04 -1.86729935E-03  4.03323567E-05 -5.79466732E-04 -3.15341676E-03
  1.45299518E-06  3.26054215E-05 -2.29494230E-04  1.87618381E-05 -5.23279818E-05
 -4.69531694E-04 -9.02670989E-05  4.44605641E-04 -3.17103248E-03 -1.41358553E-06
 -3.26211426E-05 -2.29421671E-04 -1.88300033E-05  5.22538103E-05 -4.69426887E-04
