FCHK created with read_scan from butadiene_scanMM.fchk
Scan      RExternal='gromacs_link.sh  -p joyce.new.top'               ZDO       
Number of atoms                            I               10
Charge                                     I                0
Multiplicity                               I                1
Atomic numbers                             I   N=          10
           6           1           6           1           6           1
           1           6           1           1
Nuclear charges                            R   N=          10
  6.00000000E+00  1.00000000E+00  6.00000000E+00  1.00000000E+00  6.00000000E+00
  1.00000000E+00  1.00000000E+00  6.00000000E+00  1.00000000E+00  1.00000000E+00
Current cartesian coordinates              R   N=          30
  1.15146067E+00  7.54457671E-01  1.00678868E-01  9.02347554E-01  2.79707038E+00
  1.92790503E-01 -1.15151293E+00 -7.54569557E-01  1.00767002E-01 -9.02345849E-01
 -2.79716448E+00  1.92758912E-01 -3.48894415E+00  2.07153614E-01 -8.17337648E-02
 -3.81156771E+00  2.23378219E+00 -2.07915452E-01 -5.15438647E+00 -9.91892433E-01
 -9.88367617E-02  3.48897460E+00 -2.07078372E-01 -8.17233882E-02  3.81176547E+00
 -2.23368113E+00 -2.07891034E-01  5.15431786E+00  9.92105332E-01 -9.88384721E-02
Integer atomic weights                     I   N=          30
           1           0           0           0           2           0
          -1           0           0           0          -2           0
          -3           0           0          -3           2           0
          -5           0           0           3           0           0
           3          -2           0           5           0           0
Real atomic weights                        R   N=          30
  1.15146067E+00  7.54457671E-01  1.00678868E-01  9.02347554E-01  2.79707038E+00
  1.92790503E-01 -1.15151293E+00 -7.54569557E-01  1.00767002E-01 -9.02345849E-01
 -2.79716448E+00  1.92758912E-01 -3.48894415E+00  2.07153614E-01 -8.17337648E-02
 -3.81156771E+00  2.23378219E+00 -2.07915452E-01 -5.15438647E+00 -9.91892433E-01
 -9.88367617E-02  3.48897460E+00 -2.07078372E-01 -8.17233882E-02  3.81176547E+00
 -2.23368113E+00 -2.07891034E-01  5.15431786E+00  9.92105332E-01 -9.88384721E-02
Total Energy                               R      1.932824400000000E-04
Cartesian Gradient                         R   N=          30
 -1.49057674E-04 -1.31540506E-04  4.16601875E-03  1.39516158E-04  8.40899042E-06
 -1.86071865E-03  2.15782583E-04  2.40714682E-04  4.16607922E-03 -1.80520089E-04
 -4.40675359E-05 -1.86550150E-03 -1.28104432E-04 -1.80033943E-04 -1.60143288E-03
 -9.59799155E-06  4.52290855E-05 -2.28073282E-04 -8.33552437E-06 -2.64836539E-05
 -4.73482132E-04  1.02389098E-04  1.06511057E-04 -1.60133815E-03  9.59779000E-06
 -4.52165892E-05 -2.28073282E-04  8.32984058E-06  2.64786150E-05 -4.73482132E-04
