FCHK created with read_scan from butadiene_scanMM.fchk
Scan      RExternal='gromacs_link.sh  -p joyce.new.top'               ZDO       
Number of atoms                            I               10
Charge                                     I                0
Multiplicity                               I                1
Atomic numbers                             I   N=          10
           6           1           6           1           6           1
           1           6           1           1
Nuclear charges                            R   N=          10
  6.00000000E+00  1.00000000E+00  6.00000000E+00  1.00000000E+00  6.00000000E+00
  1.00000000E+00  1.00000000E+00  6.00000000E+00  1.00000000E+00  1.00000000E+00
Current cartesian coordinates              R   N=          30
  1.26751209E+00  7.84228682E-01 -5.37153342E-01  1.61321799E+00  2.13195563E+00
 -2.05600523E+00 -1.26758017E+00  7.84218860E-01  5.37191720E-01 -1.61584621E+00
  2.13846571E+00  2.04963044E+00 -3.15986298E+00 -6.96440104E-01 -2.68234886E-01
 -2.89287622E+00 -2.04922331E+00 -1.79333268E+00 -5.02994653E+00 -6.16604071E-01
  5.73261494E-01  3.16015995E+00 -6.95657951E-01  2.68829307E-01  2.89471818E+00
 -2.04473393E+00  1.79747666E+00  5.02935947E+00 -6.17956950E-01 -5.74827475E-01
Integer atomic weights                     I   N=          30
           1           0           0           1           2          -2
          -1           0           0          -1           2           2
          -3           0           0          -2          -2          -1
          -5           0           0           3           0           0
           2          -2           1           5           0           0
Real atomic weights                        R   N=          30
  1.26751209E+00  7.84228682E-01 -5.37153342E-01  1.61321799E+00  2.13195563E+00
 -2.05600523E+00 -1.26758017E+00  7.84218860E-01  5.37191720E-01 -1.61584621E+00
  2.13846571E+00  2.04963044E+00 -3.15986298E+00 -6.96440104E-01 -2.68234886E-01
 -2.89287622E+00 -2.04922331E+00 -1.79333268E+00 -5.02994653E+00 -6.16604071E-01
  5.73261494E-01  3.16015995E+00 -6.95657951E-01  2.68829307E-01  2.89471818E+00
 -2.04473393E+00  1.79747666E+00  5.02935947E+00 -6.17956950E-01 -5.74827475E-01
Total Energy                               R      1.161423420000000E-02
Cartesian Gradient                         R   N=          30
  1.50489910E-03  2.81845592E-03  4.16353965E-03 -4.90497231E-04 -1.97275387E-03
 -1.50151704E-03 -1.42277836E-03  3.18165432E-03 -4.41943127E-03  4.28727300E-04
 -2.12571845E-03  1.59737360E-03 -7.07741073E-05 -4.08128589E-04  4.42924690E-04
  6.36738002E-05 -2.22716004E-04  7.20547747E-05  1.24860034E-04 -3.48037594E-04
  2.93648532E-04  4.81707508E-05 -3.55968703E-04 -2.77550498E-04 -6.26680510E-05
 -2.20948385E-04 -7.38447664E-05 -1.23612220E-04 -3.45846714E-04 -2.97199895E-04
