 Entering Gaussian System, Link 0=g16
 Initial command:
 /usr/local/gaussian/gaussian16.b1-legacy/g16/l1.exe "/scratch/master3/Gau-55216.inp" -scrdir="/scratch/master3/"
 Entering Link 1 = /usr/local/gaussian/gaussian16.b1-legacy/g16/l1.exe PID=     55217.
  
 Copyright (c) 1988-2017, Gaussian, Inc.  All Rights Reserved.
  
 This is part of the Gaussian(R) 16 program.  It is based on
 the Gaussian(R) 09 system (copyright 2009, Gaussian, Inc.),
 the Gaussian(R) 03 system (copyright 2003, Gaussian, Inc.),
 the Gaussian(R) 98 system (copyright 1998, Gaussian, Inc.),
 the Gaussian(R) 94 system (copyright 1995, Gaussian, Inc.),
 the Gaussian 92(TM) system (copyright 1992, Gaussian, Inc.),
 the Gaussian 90(TM) system (copyright 1990, Gaussian, Inc.),
 the Gaussian 88(TM) system (copyright 1988, Gaussian, Inc.),
 the Gaussian 86(TM) system (copyright 1986, Carnegie Mellon
 University), and the Gaussian 82(TM) system (copyright 1983,
 Carnegie Mellon University). Gaussian is a federally registered
 trademark of Gaussian, Inc.
  
 This software contains proprietary and confidential information,
 including trade secrets, belonging to Gaussian, Inc.
  
 This software is provided under written license and may be
 used, copied, transmitted, or stored only in accord with that
 written license.
  
 The following legend is applicable only to US Government
 contracts under FAR:
  
                    RESTRICTED RIGHTS LEGEND
  
 Use, reproduction and disclosure by the US Government is
 subject to restrictions as set forth in subparagraphs (a)
 and (c) of the Commercial Computer Software - Restricted
 Rights clause in FAR 52.227-19.
  
 Gaussian, Inc.
 340 Quinnipiac St., Bldg. 40, Wallingford CT 06492
  
  
 ---------------------------------------------------------------
 Warning -- This program may not be used in any manner that
 competes with the business of Gaussian, Inc. or will provide
 assistance to any competitor of Gaussian, Inc.  The licensee
 of this program is prohibited from giving any competitor of
 Gaussian, Inc. access to this program.  By using this program,
 the user acknowledges that Gaussian, Inc. is engaged in the
 business of creating and licensing software in the field of
 computational chemistry and represents and warrants to the
 licensee that it is not a competitor of Gaussian, Inc. and that
 it will not use this program in any manner prohibited above.
 ---------------------------------------------------------------
  

 Cite this work as:
 Gaussian 16, Revision B.01,
 M. J. Frisch, G. W. Trucks, H. B. Schlegel, G. E. Scuseria, 
 M. A. Robb, J. R. Cheeseman, G. Scalmani, V. Barone, 
 G. A. Petersson, H. Nakatsuji, X. Li, M. Caricato, A. V. Marenich, 
 J. Bloino, B. G. Janesko, R. Gomperts, B. Mennucci, H. P. Hratchian, 
 J. V. Ortiz, A. F. Izmaylov, J. L. Sonnenberg, D. Williams-Young, 
 F. Ding, F. Lipparini, F. Egidi, J. Goings, B. Peng, A. Petrone, 
 T. Henderson, D. Ranasinghe, V. G. Zakrzewski, J. Gao, N. Rega, 
 G. Zheng, W. Liang, M. Hada, M. Ehara, K. Toyota, R. Fukuda, 
 J. Hasegawa, M. Ishida, T. Nakajima, Y. Honda, O. Kitao, H. Nakai, 
 T. Vreven, K. Throssell, J. A. Montgomery, Jr., J. E. Peralta, 
 F. Ogliaro, M. J. Bearpark, J. J. Heyd, E. N. Brothers, K. N. Kudin, 
 V. N. Staroverov, T. A. Keith, R. Kobayashi, J. Normand, 
 K. Raghavachari, A. P. Rendell, J. C. Burant, S. S. Iyengar, 
 J. Tomasi, M. Cossi, J. M. Millam, M. Klene, C. Adamo, R. Cammi, 
 J. W. Ochterski, R. L. Martin, K. Morokuma, O. Farkas, 
 J. B. Foresman, and D. J. Fox, Gaussian, Inc., Wallingford CT, 2016.
 
 ******************************************
 Gaussian 16:  EM64L-G16RevB.01 20-Dec-2017
                25-Apr-2019 
 ******************************************
 %chk=butadiene_scan_cam.chk
 -----------------------------------------------------
 # opt=modredundant cam-b3lyp/6-31+g geom=connectivity
 -----------------------------------------------------
 1/18=120,19=15,26=3,38=1,57=2/1,3;
 2/9=110,12=2,17=6,18=5,40=1/2;
 3/5=1,6=6,7=10,11=2,25=1,30=1,71=1,74=-40/1,2,3;
 4//1;
 5/5=2,38=5/2;
 6/7=2,8=2,9=2,10=2,28=1/1;
 7//1,2,3,16;
 1/18=20,19=15,26=3/3(2);
 2/9=110/2;
 99//99;
 2/9=110/2;
 3/5=1,6=6,7=10,11=2,25=1,30=1,71=1,74=-40/1,2,3;
 4/5=5,16=3,69=1/1;
 5/5=2,38=5/2;
 7//1,2,3,16;
 1/18=20,19=15,26=3/3(-5);
 2/9=110/2;
 6/7=2,8=2,9=2,10=2,19=2,28=1/1;
 99/9=1/99;
 -------------------
 Title Card Required
 -------------------
 Symbolic Z-matrix:
 Charge =  0 Multiplicity = 1
 C                     0.6319    0.44      0. 
 H                     0.53933   1.50599   0. 
 C                    -0.6319   -0.44      0. 
 H                    -0.53933  -1.50599   0. 
 C                    -1.8609    0.13109   0. 
 H                    -1.9598    1.19651   0. 
 H                    -2.73535  -0.48554   0. 
 C                     1.8609   -0.13109   0. 
 H                     1.9598   -1.19651   0. 
 H                     2.73535   0.48554   0. 
 
 The following ModRedundant input section has been read:
 D       8       1       3       5 S  18 10.000                                
 

 GradGradGradGradGradGradGradGradGradGradGradGradGradGradGradGradGradGrad
 Berny optimization.
 Initialization pass.
                           ----------------------------
                           !    Initial Parameters    !
                           ! (Angstroms and Degrees)  !
 --------------------------                            --------------------------
 ! Name  Definition              Value          Derivative Info.                !
 --------------------------------------------------------------------------------
 ! R1    R(1,2)                  1.07           estimate D2E/DX2                !
 ! R2    R(1,3)                  1.54           estimate D2E/DX2                !
 ! R3    R(1,8)                  1.3552         estimate D2E/DX2                !
 ! R4    R(3,4)                  1.07           estimate D2E/DX2                !
 ! R5    R(3,5)                  1.3552         estimate D2E/DX2                !
 ! R6    R(5,6)                  1.07           estimate D2E/DX2                !
 ! R7    R(5,7)                  1.07           estimate D2E/DX2                !
 ! R8    R(8,9)                  1.07           estimate D2E/DX2                !
 ! R9    R(8,10)                 1.07           estimate D2E/DX2                !
 ! A1    A(2,1,3)              119.8865         estimate D2E/DX2                !
 ! A2    A(2,1,8)              119.8865         estimate D2E/DX2                !
 ! A3    A(3,1,8)              120.2269         estimate D2E/DX2                !
 ! A4    A(1,3,4)              119.8865         estimate D2E/DX2                !
 ! A5    A(1,3,5)              120.2269         estimate D2E/DX2                !
 ! A6    A(4,3,5)              119.8865         estimate D2E/DX2                !
 ! A7    A(3,5,6)              120.2269         estimate D2E/DX2                !
 ! A8    A(3,5,7)              119.8865         estimate D2E/DX2                !
 ! A9    A(6,5,7)              119.8865         estimate D2E/DX2                !
 ! A10   A(1,8,9)              120.2269         estimate D2E/DX2                !
 ! A11   A(1,8,10)             119.8865         estimate D2E/DX2                !
 ! A12   A(9,8,10)             119.8865         estimate D2E/DX2                !
 ! D1    D(2,1,3,4)            180.0            estimate D2E/DX2                !
 ! D2    D(2,1,3,5)              0.0            estimate D2E/DX2                !
 ! D3    D(8,1,3,4)              0.0            estimate D2E/DX2                !
 ! D4    D(8,1,3,5)            180.0            Scan                            !
 ! D5    D(2,1,8,9)            180.0            estimate D2E/DX2                !
 ! D6    D(2,1,8,10)             0.0            estimate D2E/DX2                !
 ! D7    D(3,1,8,9)              0.0            estimate D2E/DX2                !
 ! D8    D(3,1,8,10)           180.0            estimate D2E/DX2                !
 ! D9    D(1,3,5,6)              0.0            estimate D2E/DX2                !
 ! D10   D(1,3,5,7)            180.0            estimate D2E/DX2                !
 ! D11   D(4,3,5,6)            180.0            estimate D2E/DX2                !
 ! D12   D(4,3,5,7)              0.0            estimate D2E/DX2                !
 --------------------------------------------------------------------------------
 Trust Radius=3.00D-01 FncErr=1.00D-07 GrdErr=1.00D-06 EigMax=2.50D+02 EigMin=1.00D-04
 Number of optimizations in scan=  19
 Number of steps in this run=     43 maximum allowed number of steps=    100.
 GradGradGradGradGradGradGradGradGradGradGradGradGradGradGradGradGradGrad

                          Input orientation:                          
 ---------------------------------------------------------------------
 Center     Atomic      Atomic             Coordinates (Angstroms)
 Number     Number       Type             X           Y           Z
 ---------------------------------------------------------------------
      1          6           0        0.631903    0.439999    0.000000
      2          1           0        0.539330    1.505986    0.000000
      3          6           0       -0.631903   -0.439999    0.000000
      4          1           0       -0.539330   -1.505986    0.000000
      5          6           0       -1.860897    0.131089    0.000000
      6          1           0       -1.959802    1.196508    0.000000
      7          1           0       -2.735348   -0.485544    0.000000
      8          6           0        1.860897   -0.131089    0.000000
      9          1           0        1.959802   -1.196508    0.000000
     10          1           0        2.735348    0.485544    0.000000
 ---------------------------------------------------------------------
                    Distance matrix (angstroms):
                    1          2          3          4          5
     1  C    0.000000
     2  H    1.070000   0.000000
     3  C    1.540000   2.271265   0.000000
     4  H    2.271265   3.199295   1.070000   0.000000
     5  C    2.511867   2.766123   1.355200   2.103938   0.000000
     6  H    2.699859   2.518221   2.107479   3.053066   1.070000
     7  H    3.492135   3.832716   2.103938   2.421527   1.070000
     8  C    1.355200   2.103938   2.511867   2.766123   3.731017
     9  H    2.107479   3.053066   2.699859   2.518221   4.044781
    10  H    2.103938   2.421527   3.492135   3.832716   4.609892
                    6          7          8          9         10
     6  H    0.000000
     7  H    1.852234   0.000000
     8  C    4.044781   4.609892   0.000000
     9  H    4.592365   4.748673   1.070000   0.000000
    10  H    4.748673   5.556214   1.070000   1.852234   0.000000
 Stoichiometry    C4H6
 Framework group  C2H[SGH(C4H6)]
 Deg. of freedom     9
 Full point group                 C2H     NOp   4
 Largest Abelian subgroup         C2H     NOp   4
 Largest concise Abelian subgroup C2      NOp   2
                         Standard orientation:                         
 ---------------------------------------------------------------------
 Center     Atomic      Atomic             Coordinates (Angstroms)
 Number     Number       Type             X           Y           Z
 ---------------------------------------------------------------------
      1          6           0       -0.358947    0.681217    0.000000
      2          1           0       -1.428228    0.720443    0.000000
      3          6           0        0.358947   -0.681217    0.000000
      4          1           0        1.428228   -0.720443    0.000000
      5          6           0       -0.358947   -1.830650    0.000000
      6          1           0       -1.428442   -1.797778    0.000000
      7          1           0        0.145465   -2.774296    0.000000
      8          6           0        0.358947    1.830650    0.000000
      9          1           0        1.428442    1.797778    0.000000
     10          1           0       -0.145465    2.774296    0.000000
 ---------------------------------------------------------------------
 Rotational constants (GHZ):          38.9066132           4.3527853           3.9148055
 Standard basis: 6-31+G (6D, 7F)
 There are    26 symmetry adapted cartesian basis functions of AG  symmetry.
 There are     6 symmetry adapted cartesian basis functions of BG  symmetry.
 There are     6 symmetry adapted cartesian basis functions of AU  symmetry.
 There are    26 symmetry adapted cartesian basis functions of BU  symmetry.
 There are    26 symmetry adapted basis functions of AG  symmetry.
 There are     6 symmetry adapted basis functions of BG  symmetry.
 There are     6 symmetry adapted basis functions of AU  symmetry.
 There are    26 symmetry adapted basis functions of BU  symmetry.
    64 basis functions,   128 primitive gaussians,    64 cartesian basis functions
    15 alpha electrons       15 beta electrons
       nuclear repulsion energy       102.4724596192 Hartrees.
 NAtoms=   10 NActive=   10 NUniq=    5 SFac= 4.00D+00 NAtFMM=   60 NAOKFM=F Big=F
 Integral buffers will be    131072 words long.
 Raffenetti 2 integral format.
 Two-electron integral symmetry is turned on.
 One-electron integrals computed using PRISM.
 NBasis=    64 RedAO= T EigKep=  3.38D-05  NBF=    26     6     6    26
 NBsUse=    64 1.00D-06 EigRej= -1.00D+00 NBFU=    26     6     6    26
 ExpMin= 4.38D-02 ExpMax= 3.05D+03 ExpMxC= 4.57D+02 IAcc=3 IRadAn=         5 AccDes= 0.00D+00
 Harris functional with IExCor=20419 and IRadAn=       5 diagonalized for initial guess.
 HarFok:  IExCor=20419 AccDes= 0.00D+00 IRadAn=         5 IDoV= 1 UseB2=F ITyADJ=14
 ICtDFT=  3500011 ScaDFX=  1.000000  1.000000  1.000000  1.000000
 FoFCou: FMM=F IPFlag=           0 FMFlag=      100000 FMFlg1=           0
         NFxFlg=           0 DoJE=T BraDBF=F KetDBF=T FulRan=T
         wScrn=  0.000000 ICntrl=       500 IOpCl=  0 I1Cent=   200000004 NGrid=           0
         NMat0=    1 NMatS0=      1 NMatT0=    0 NMatD0=    1 NMtDS0=    0 NMtDT0=    0
 Petite list used in FoFCou.
 Initial guess orbital symmetries:
       Occupied  (BU) (AG) (BU) (AG) (AG) (BU) (AG) (BU) (AG) (BU)
                 (AG) (BU) (AG) (AU) (BG)
       Virtual   (AU) (AG) (BU) (BG) (BU) (AG) (AU) (AG) (BU) (BG)
                 (AG) (BU) (BG) (AU) (BU) (AG) (AG) (BU) (BU) (BU)
                 (AG) (AG) (BU) (AG) (BU) (AG) (BU) (BU) (AG) (AU)
                 (BG) (BU) (BG) (AU) (AG) (BU) (AG) (BU) (AG) (AG)
                 (BU) (AG) (BU) (BU) (AG) (AG) (BU) (AG) (BU)
 The electronic state of the initial guess is 1-AG.
 Keep R1 ints in memory in symmetry-blocked form, NReq=5592225.
 Requested convergence on RMS density matrix=1.00D-08 within 128 cycles.
 Requested convergence on MAX density matrix=1.00D-06.
 Requested convergence on             energy=1.00D-06.
 No special actions if energy rises.
 SCF Done:  E(RCAM-B3LYP) =  -155.854924682     A.U. after   10 cycles
            NFock= 10  Conv=0.24D-08     -V/T= 2.0063

 **********************************************************************

            Population analysis using the SCF Density.

 **********************************************************************

 Orbital symmetries:
       Occupied  (AG) (BU) (BU) (AG) (AG) (BU) (AG) (BU) (AG) (BU)
                 (BU) (AG) (AG) (AU) (BG)
       Virtual   (AU) (AG) (BU) (BU) (BG) (AG) (AG) (AU) (BU) (BG)
                 (BU) (AG) (AU) (BG) (BU) (AG) (AG) (BU) (BU) (BU)
                 (AG) (BU) (AG) (AG) (AG) (BU) (BU) (BU) (AG) (AU)
                 (BG) (BU) (BG) (AU) (AG) (BU) (AG) (BU) (AG) (AG)
                 (BU) (AG) (BU) (BU) (AG) (AG) (BU) (AG) (BU)
 The electronic state is 1-AG.
 Alpha  occ. eigenvalues --  -10.27851 -10.27838 -10.25924 -10.25923  -0.88776
 Alpha  occ. eigenvalues --   -0.82342  -0.67886  -0.64057  -0.54531  -0.53829
 Alpha  occ. eigenvalues --   -0.46565  -0.46490  -0.41655  -0.38596  -0.29439
 Alpha virt. eigenvalues --    0.01117   0.04545   0.05117   0.05745   0.06699
 Alpha virt. eigenvalues --    0.07970   0.09080   0.09485   0.11189   0.12640
 Alpha virt. eigenvalues --    0.13321   0.13330   0.17256   0.17777   0.18233
 Alpha virt. eigenvalues --    0.18386   0.21507   0.24225   0.26048   0.27781
 Alpha virt. eigenvalues --    0.27803   0.30544   0.30628   0.36426   0.42733
 Alpha virt. eigenvalues --    0.43598   0.45261   0.66172   0.71905   0.73138
 Alpha virt. eigenvalues --    0.75039   0.78096   0.79820   0.81468   0.85150
 Alpha virt. eigenvalues --    0.87577   0.93154   1.02044   1.02115   1.09017
 Alpha virt. eigenvalues --    1.09904   1.13621   1.14517   1.18559   1.21392
 Alpha virt. eigenvalues --    1.26550   1.30470   1.41305   1.47528
          Condensed to atoms (all electrons):
               1          2          3          4          5          6
     1  C    5.607326   0.307638  -0.036459   0.007826   0.208698   0.020475
     2  H    0.307638   0.521581   0.007826   0.002223  -0.031060   0.001329
     3  C   -0.036459   0.007826   5.607326   0.307638   0.129518  -0.127730
     4  H    0.007826   0.002223   0.307638   0.521581   0.018405   0.003565
     5  C    0.208698  -0.031060   0.129518   0.018405   5.399209   0.459316
     6  H    0.020475   0.001329  -0.127730   0.003565   0.459316   0.509839
     7  H    0.015530   0.000149  -0.071674  -0.004247   0.410692  -0.028832
     8  C    0.129518   0.018405   0.208698  -0.031060  -0.127546  -0.009684
     9  H   -0.127730   0.003565   0.020475   0.001329  -0.009684  -0.000002
    10  H   -0.071674  -0.004247   0.015530   0.000149  -0.003263  -0.000000
               7          8          9         10
     1  C    0.015530   0.129518  -0.127730  -0.071674
     2  H    0.000149   0.018405   0.003565  -0.004247
     3  C   -0.071674   0.208698   0.020475   0.015530
     4  H   -0.004247  -0.031060   0.001329   0.000149
     5  C    0.410692  -0.127546  -0.009684  -0.003263
     6  H   -0.028832  -0.009684  -0.000002  -0.000000
     7  H    0.510526  -0.003263  -0.000000   0.000002
     8  C   -0.003263   5.399209   0.459316   0.410692
     9  H   -0.000000   0.459316   0.509839  -0.028832
    10  H    0.000002   0.410692  -0.028832   0.510526
 Mulliken charges:
               1
     1  C   -0.061149
     2  H    0.172593
     3  C   -0.061149
     4  H    0.172593
     5  C   -0.454285
     6  H    0.171724
     7  H    0.171116
     8  C   -0.454285
     9  H    0.171724
    10  H    0.171116
 Sum of Mulliken charges =   0.00000
 Mulliken charges with hydrogens summed into heavy atoms:
               1
     1  C    0.111445
     3  C    0.111445
     5  C   -0.111445
     8  C   -0.111445
 Electronic spatial extent (au):  <R**2>=            342.6606
 Charge=              0.0000 electrons
 Dipole moment (field-independent basis, Debye):
    X=              0.0000    Y=              0.0000    Z=              0.0000  Tot=              0.0000
 Quadrupole moment (field-independent basis, Debye-Ang):
   XX=            -22.8808   YY=            -24.0019   ZZ=            -29.8728
   XY=             -0.3103   XZ=              0.0000   YZ=              0.0000
 Traceless Quadrupole moment (field-independent basis, Debye-Ang):
   XX=              2.7043   YY=              1.5833   ZZ=             -4.2876
   XY=             -0.3103   XZ=              0.0000   YZ=              0.0000
 Octapole moment (field-independent basis, Debye-Ang**2):
  XXX=             -0.0000  YYY=             -0.0000  ZZZ=              0.0000  XYY=             -0.0000
  XXY=              0.0000  XXZ=              0.0000  XZZ=             -0.0000  YZZ=             -0.0000
  YYZ=              0.0000  XYZ=              0.0000
 Hexadecapole moment (field-independent basis, Debye-Ang**3):
 XXXX=            -72.4834 YYYY=           -352.0421 ZZZZ=            -40.0784 XXXY=            -16.8208
 XXXZ=              0.0000 YYYX=            -24.0085 YYYZ=              0.0000 ZZZX=              0.0000
 ZZZY=              0.0000 XXYY=            -72.5120 XXZZ=            -21.0497 YYZZ=            -79.9144
 XXYZ=              0.0000 YYXZ=              0.0000 ZZXY=             -7.0146
 N-N= 1.024724596192D+02 E-N=-5.654574265825D+02  KE= 1.548757525469D+02
 Symmetry AG   KE= 7.689242150249D+01
 Symmetry BG   KE= 2.180942202672D+00
 Symmetry AU   KE= 1.925444816011D+00
 Symmetry BU   KE= 7.387694402576D+01
 Calling FoFJK, ICntrl=      2127 FMM=F ISym2X=1 I1Cent= 0 IOpClX= 0 NMat=1 NMatS=1 NMatT=0.
 ***** Axes restored to original set *****
 -------------------------------------------------------------------
 Center     Atomic                   Forces (Hartrees/Bohr)
 Number     Number              X              Y              Z
 -------------------------------------------------------------------
      1        6          -0.006468818   -0.057758276   -0.000000000
      2        1          -0.007201268    0.010944322   -0.000000000
      3        6           0.006468818    0.057758276   -0.000000000
      4        1           0.007201268   -0.010944322   -0.000000000
      5        6           0.027882792   -0.018657126   -0.000000000
      6        1          -0.004912696    0.010450577   -0.000000000
      7        1          -0.011216701   -0.002152971   -0.000000000
      8        6          -0.027882792    0.018657126   -0.000000000
      9        1           0.004912696   -0.010450577   -0.000000000
     10        1           0.011216701    0.002152971   -0.000000000
 -------------------------------------------------------------------
 Cartesian Forces:  Max     0.057758276 RMS     0.018145409

 GradGradGradGradGradGradGradGradGradGradGradGradGradGradGradGradGradGrad
 Berny optimization.
 FormGI is forming the generalized inverse of G from B-inverse, IUseBI=4.
 Internal  Forces:  Max     0.041694909 RMS     0.010322293
 Search for a local minimum.
 Step number   1 out of a maximum of   43 on scan point     1 out of    19
 All quantities printed in internal units (Hartrees-Bohrs-Radians)
 Mixed Optimization -- RFO/linear search
 Second derivative matrix not updated -- first step.
 ITU=  0
     Eigenvalues ---    0.00848   0.01459   0.02681   0.02681   0.02681
     Eigenvalues ---    0.02681   0.16000   0.16000   0.16000   0.16000
     Eigenvalues ---    0.16000   0.16000   0.22000   0.22000   0.28519
     Eigenvalues ---    0.37230   0.37230   0.37230   0.37230   0.37230
     Eigenvalues ---    0.37230   0.53930   0.539301000.000001000.00000
     Eigenvalues --- 1000.000001000.000001000.000001000.000001000.00000
     Eigenvalues --- 1000.000001000.000001000.00000
 RFO step:  Lambda=-1.15706866D-02 EMin= 8.47961735D-03
 Linear search not attempted -- first point.
 Iteration  1 RMS(Cart)=  0.03786260 RMS(Int)=  0.00065551
 Iteration  2 RMS(Cart)=  0.00111170 RMS(Int)=  0.00000031
 Iteration  3 RMS(Cart)=  0.00000036 RMS(Int)=  0.00000000
 Iteration  1 RMS(Cart)=  0.00000000 RMS(Int)=  0.00000000
 ClnCor:  largest displacement from symmetrization is 9.32D-13 for atom     4.
 Variable       Old X    -DE/DX   Delta X   Delta X   Delta X     New X
                                 (Linear)    (Quad)   (Total)
    R1        2.02201   0.01153   0.00000   0.03003   0.03003   2.05203
    R2        2.91018  -0.04169   0.00000  -0.14050  -0.14050   2.76968
    R3        2.56096  -0.01502   0.00000  -0.02727  -0.02727   2.53368
    R4        2.02201   0.01153   0.00000   0.03003   0.03003   2.05203
    R5        2.56096  -0.01502   0.00000  -0.02727  -0.02727   2.53368
    R6        2.02201   0.01086   0.00000   0.02829   0.02829   2.05030
    R7        2.02201   0.01041   0.00000   0.02711   0.02711   2.04912
    R8        2.02201   0.01086   0.00000   0.02829   0.02829   2.05030
    R9        2.02201   0.01041   0.00000   0.02711   0.02711   2.04912
    A1        2.09241  -0.01166   0.00000  -0.05987  -0.05987   2.03255
    A2        2.09241   0.00093   0.00000   0.01353   0.01353   2.10594
    A3        2.09836   0.01073   0.00000   0.04634   0.04634   2.14470
    A4        2.09241  -0.01166   0.00000  -0.05987  -0.05987   2.03255
    A5        2.09836   0.01073   0.00000   0.04634   0.04634   2.14470
    A6        2.09241   0.00093   0.00000   0.01353   0.01353   2.10594
    A7        2.09836   0.00212   0.00000   0.01236   0.01236   2.11072
    A8        2.09241   0.00370   0.00000   0.02154   0.02154   2.11396
    A9        2.09241  -0.00582   0.00000  -0.03390  -0.03390   2.05851
   A10        2.09836   0.00212   0.00000   0.01236   0.01236   2.11072
   A11        2.09241   0.00370   0.00000   0.02154   0.02154   2.11396
   A12        2.09241  -0.00582   0.00000  -0.03390  -0.03390   2.05851
    D1        3.14159  -0.00000   0.00000  -0.00000   0.00000   3.14159
    D2        0.00000  -0.00000   0.00000  -0.00000   0.00000   0.00000
    D3        0.00000  -0.00000   0.00000  -0.00000   0.00000   0.00000
    D4        3.14159  -0.00000   0.00000   0.00000   0.00000   3.14159
    D5        3.14159   0.00000   0.00000  -0.00000   0.00000   3.14159
    D6        0.00000   0.00000   0.00000  -0.00000   0.00000   0.00000
    D7        0.00000   0.00000   0.00000  -0.00000   0.00000   0.00000
    D8        3.14159  -0.00000   0.00000  -0.00000   0.00000   3.14159
    D9        0.00000   0.00000   0.00000   0.00000   0.00000   0.00000
   D10        3.14159  -0.00000   0.00000  -0.00000   0.00000   3.14159
   D11        3.14159   0.00000   0.00000   0.00000   0.00000   3.14159
   D12        0.00000   0.00000   0.00000   0.00000   0.00000   0.00000
         Item               Value     Threshold  Converged?
 Maximum Force            0.041695     0.000450     NO 
 RMS     Force            0.010482     0.000300     NO 
 Maximum Displacement     0.103952     0.001800     NO 
 RMS     Displacement     0.038273     0.001200     NO 
 Predicted change in Energy=-6.025220D-03
 GradGradGradGradGradGradGradGradGradGradGradGradGradGradGradGradGradGrad

                          Input orientation:                          
 ---------------------------------------------------------------------
 Center     Atomic      Atomic             Coordinates (Angstroms)
 Number     Number       Type             X           Y           Z
 ---------------------------------------------------------------------
      1          6           0        0.612830    0.401836    0.000000
      2          1           0        0.484321    1.480094    0.000000
      3          6           0       -0.612830   -0.401836    0.000000
      4          1           0       -0.484321   -1.480094    0.000000
      5          6           0       -1.838964    0.140615    0.000000
      6          1           0       -1.972509    1.217335    0.000000
      7          1           0       -2.727054   -0.481563    0.000000
      8          6           0        1.838964   -0.140615    0.000000
      9          1           0        1.972509   -1.217335    0.000000
     10          1           0        2.727054    0.481563    0.000000
 ---------------------------------------------------------------------
                    Distance matrix (angstroms):
                    1          2          3          4          5
     1  C    0.000000
     2  H    1.085889   0.000000
     3  C    1.465650   2.178394   0.000000
     4  H    2.178394   3.114640   1.085889   0.000000
     5  C    2.465670   2.681764   1.340767   2.112287   0.000000
     6  H    2.710907   2.470841   2.114342   3.080719   1.084971
     7  H    3.454738   3.763114   2.115727   2.454978   1.084347
     8  C    1.340767   2.112287   2.465670   2.681764   3.688664
     9  H    2.114342   3.080719   2.710907   2.470841   4.046153
    10  H    2.115727   2.454978   3.454738   3.763114   4.578730
                    6          7          8          9         10
     6  H    0.000000
     7  H    1.858922   0.000000
     8  C    4.046153   4.578730   0.000000
     9  H    4.635816   4.756811   1.084971   0.000000
    10  H    4.756811   5.538493   1.084347   1.858922   0.000000
 Stoichiometry    C4H6
 Framework group  C2H[SGH(C4H6)]
 Deg. of freedom     9
 Full point group                 C2H     NOp   4
 Largest Abelian subgroup         C2H     NOp   4
 Largest concise Abelian subgroup C2      NOp   2
                         Standard orientation:                         
 ---------------------------------------------------------------------
 Center     Atomic      Atomic             Coordinates (Angstroms)
 Number     Number       Type             X           Y           Z
 ---------------------------------------------------------------------
      1          6           0       -0.334649    0.651953    0.000000
      2          1           0       -1.420454    0.638401    0.000000
      3          6           0        0.334649   -0.651953    0.000000
      4          1           0        1.420454   -0.638401    0.000000
      5          6           0       -0.334649   -1.813717    0.000000
      6          1           0       -1.419458   -1.832440    0.000000
      7          1           0        0.189939   -2.762725    0.000000
      8          6           0        0.334649    1.813717    0.000000
      9          1           0        1.419458    1.832440    0.000000
     10          1           0       -0.189939    2.762725    0.000000
 ---------------------------------------------------------------------
 Rotational constants (GHZ):          41.3933377           4.4529750           4.0204650
 Standard basis: 6-31+G (6D, 7F)
 There are    26 symmetry adapted cartesian basis functions of AG  symmetry.
 There are     6 symmetry adapted cartesian basis functions of BG  symmetry.
 There are     6 symmetry adapted cartesian basis functions of AU  symmetry.
 There are    26 symmetry adapted cartesian basis functions of BU  symmetry.
 There are    26 symmetry adapted basis functions of AG  symmetry.
 There are     6 symmetry adapted basis functions of BG  symmetry.
 There are     6 symmetry adapted basis functions of AU  symmetry.
 There are    26 symmetry adapted basis functions of BU  symmetry.
    64 basis functions,   128 primitive gaussians,    64 cartesian basis functions
    15 alpha electrons       15 beta electrons
       nuclear repulsion energy       103.6753996801 Hartrees.
 NAtoms=   10 NActive=   10 NUniq=    5 SFac= 4.00D+00 NAtFMM=   60 NAOKFM=F Big=F
 Integral buffers will be    131072 words long.
 Raffenetti 2 integral format.
 Two-electron integral symmetry is turned on.
 One-electron integrals computed using PRISM.
 NBasis=    64 RedAO= T EigKep=  2.84D-05  NBF=    26     6     6    26
 NBsUse=    64 1.00D-06 EigRej= -1.00D+00 NBFU=    26     6     6    26
 Initial guess from the checkpoint file:  "butadiene_scan_cam.chk"
 B after Tr=     0.000000    0.000000    0.000000
         Rot=    0.999980   -0.000000   -0.000000   -0.006279 Ang=  -0.72 deg.
 Initial guess orbital symmetries:
       Occupied  (AG) (BU) (BU) (AG) (AG) (BU) (AG) (BU) (AG) (BU)
                 (BU) (AG) (AG) (AU) (BG)
       Virtual   (AU) (AG) (BU) (BU) (BG) (AG) (AG) (AU) (BU) (BG)
                 (BU) (AG) (AU) (BG) (BU) (AG) (AG) (BU) (BU) (BU)
                 (AG) (BU) (AG) (AG) (AG) (BU) (BU) (BU) (AG) (AU)
                 (BG) (BU) (BG) (AU) (AG) (BU) (AG) (BU) (AG) (AG)
                 (BU) (AG) (BU) (BU) (AG) (AG) (BU) (AG) (BU)
 ExpMin= 4.38D-02 ExpMax= 3.05D+03 ExpMxC= 4.57D+02 IAcc=3 IRadAn=         5 AccDes= 0.00D+00
 Harris functional with IExCor=20419 and IRadAn=       5 diagonalized for initial guess.
 HarFok:  IExCor=20419 AccDes= 0.00D+00 IRadAn=         5 IDoV= 1 UseB2=F ITyADJ=14
 ICtDFT=  3500011 ScaDFX=  1.000000  1.000000  1.000000  1.000000
 FoFCou: FMM=F IPFlag=           0 FMFlag=      100000 FMFlg1=           0
         NFxFlg=           0 DoJE=T BraDBF=F KetDBF=T FulRan=T
         wScrn=  0.000000 ICntrl=       500 IOpCl=  0 I1Cent=   200000004 NGrid=           0
         NMat0=    1 NMatS0=      1 NMatT0=    0 NMatD0=    1 NMtDS0=    0 NMtDT0=    0
 Petite list used in FoFCou.
 Keep R1 ints in memory in symmetry-blocked form, NReq=5592225.
 Requested convergence on RMS density matrix=1.00D-08 within 128 cycles.
 Requested convergence on MAX density matrix=1.00D-06.
 Requested convergence on             energy=1.00D-06.
 No special actions if energy rises.
 SCF Done:  E(RCAM-B3LYP) =  -155.861424596     A.U. after   10 cycles
            NFock= 10  Conv=0.14D-08     -V/T= 2.0058
 Calling FoFJK, ICntrl=      2127 FMM=F ISym2X=1 I1Cent= 0 IOpClX= 0 NMat=1 NMatS=1 NMatT=0.
 ***** Axes restored to original set *****
 -------------------------------------------------------------------
 Center     Atomic                   Forces (Hartrees/Bohr)
 Number     Number              X              Y              Z
 -------------------------------------------------------------------
      1        6          -0.000011356   -0.008574875   -0.000000000
      2        1           0.000402514    0.001714105   -0.000000000
      3        6           0.000011356    0.008574875   -0.000000000
      4        1          -0.000402514   -0.001714105   -0.000000000
      5        6           0.001417984   -0.005311116   -0.000000000
      6        1          -0.001826419    0.000542620   -0.000000000
      7        1          -0.001067161    0.001903064   -0.000000000
      8        6          -0.001417984    0.005311116   -0.000000000
      9        1           0.001826419   -0.000542620   -0.000000000
     10        1           0.001067161   -0.001903064   -0.000000000
 -------------------------------------------------------------------
 Cartesian Forces:  Max     0.008574875 RMS     0.002771740

 GradGradGradGradGradGradGradGradGradGradGradGradGradGradGradGradGradGrad
 Berny optimization.
 Using GEDIIS/GDIIS optimizer.
 FormGI is forming the generalized inverse of G from B-inverse, IUseBI=4.
 Internal  Forces:  Max     0.004442158 RMS     0.001653004
 Search for a local minimum.
 Step number   2 out of a maximum of   43 on scan point     1 out of    19
 All quantities printed in internal units (Hartrees-Bohrs-Radians)
 Mixed Optimization -- RFO/linear search
 Update second derivatives using D2CorX and points    1    2
 DE= -6.50D-03 DEPred=-6.03D-03 R= 1.08D+00
 TightC=F SS=  1.41D+00  RLast= 2.04D-01 DXNew= 5.0454D-01 6.1087D-01
 Trust test= 1.08D+00 RLast= 2.04D-01 DXMaxT set to 5.05D-01
 ITU=  1  0
 Use linear search instead of GDIIS.
     Eigenvalues ---    0.00885   0.01508   0.02681   0.02681   0.02681
     Eigenvalues ---    0.02681   0.14976   0.16000   0.16000   0.16000
     Eigenvalues ---    0.16000   0.16471   0.20057   0.22000   0.30473
     Eigenvalues ---    0.36834   0.37230   0.37230   0.37230   0.37230
     Eigenvalues ---    0.37737   0.53930   0.545231000.000001000.00000
     Eigenvalues --- 1000.000001000.000001000.000001000.000001000.00000
     Eigenvalues --- 1000.000001000.000001000.00000
 RFO step:  Lambda=-3.97797090D-04 EMin= 8.85328932D-03
 Quartic linear search produced a step of  0.08514.
 Iteration  1 RMS(Cart)=  0.01549729 RMS(Int)=  0.00007901
 Iteration  2 RMS(Cart)=  0.00011430 RMS(Int)=  0.00000000
 Iteration  3 RMS(Cart)=  0.00000000 RMS(Int)=  0.00000000
 Iteration  1 RMS(Cart)=  0.00000000 RMS(Int)=  0.00000000
 ClnCor:  largest displacement from symmetrization is 1.26D-11 for atom     5.
 Variable       Old X    -DE/DX   Delta X   Delta X   Delta X     New X
                                 (Linear)    (Quad)   (Total)
    R1        2.05203   0.00165   0.00256   0.00298   0.00553   2.05757
    R2        2.76968  -0.00063  -0.01196   0.00664  -0.00532   2.76436
    R3        2.53368   0.00019  -0.00232   0.00197  -0.00036   2.53333
    R4        2.05203   0.00165   0.00256   0.00298   0.00553   2.05757
    R5        2.53368   0.00019  -0.00232   0.00197  -0.00036   2.53333
    R6        2.05030   0.00076   0.00241   0.00049   0.00290   2.05320
    R7        2.04912  -0.00022   0.00231  -0.00229   0.00001   2.04913
    R8        2.05030   0.00076   0.00241   0.00049   0.00290   2.05320
    R9        2.04912  -0.00022   0.00231  -0.00229   0.00001   2.04913
    A1        2.03255  -0.00160  -0.00510  -0.00243  -0.00753   2.02502
    A2        2.10594  -0.00284   0.00115  -0.01628  -0.01512   2.09082
    A3        2.14470   0.00444   0.00395   0.01871   0.02265   2.16735
    A4        2.03255  -0.00160  -0.00510  -0.00243  -0.00753   2.02502
    A5        2.14470   0.00444   0.00395   0.01871   0.02265   2.16735
    A6        2.10594  -0.00284   0.00115  -0.01628  -0.01512   2.09082
    A7        2.11072   0.00090   0.00105   0.00519   0.00624   2.11696
    A8        2.11396   0.00177   0.00183   0.01038   0.01222   2.12617
    A9        2.05851  -0.00268  -0.00289  -0.01557  -0.01846   2.04005
   A10        2.11072   0.00090   0.00105   0.00519   0.00624   2.11696
   A11        2.11396   0.00177   0.00183   0.01038   0.01222   2.12617
   A12        2.05851  -0.00268  -0.00289  -0.01557  -0.01846   2.04005
    D1        3.14159  -0.00000   0.00000   0.00000   0.00000   3.14159
    D2        0.00000   0.00000   0.00000   0.00000   0.00000   0.00000
    D3        0.00000   0.00000   0.00000   0.00000   0.00000   0.00000
    D4        3.14159  -0.00000   0.00000   0.00000   0.00000   3.14159
    D5        3.14159   0.00000   0.00000   0.00000   0.00000   3.14159
    D6        0.00000  -0.00000   0.00000   0.00000   0.00000   0.00000
    D7        0.00000   0.00000   0.00000   0.00000   0.00000   0.00000
    D8        3.14159  -0.00000   0.00000   0.00000   0.00000   3.14159
    D9        0.00000  -0.00000   0.00000   0.00000   0.00000   0.00000
   D10        3.14159   0.00000   0.00000   0.00000   0.00000   3.14159
   D11        3.14159   0.00000   0.00000   0.00000   0.00000   3.14159
   D12        0.00000   0.00000   0.00000  -0.00000   0.00000   0.00000
         Item               Value     Threshold  Converged?
 Maximum Force            0.004442     0.000450     NO 
 RMS     Force            0.001679     0.000300     NO 
 Maximum Displacement     0.047269     0.001800     NO 
 RMS     Displacement     0.015426     0.001200     NO 
 Predicted change in Energy=-2.539204D-04
 GradGradGradGradGradGradGradGradGradGradGradGradGradGradGradGradGradGrad

                          Input orientation:                          
 ---------------------------------------------------------------------
 Center     Atomic      Atomic             Coordinates (Angstroms)
 Number     Number       Type             X           Y           Z
 ---------------------------------------------------------------------
      1          6           0        0.617230    0.392428    0.000000
      2          1           0        0.495436    1.474412    0.000000
      3          6           0       -0.617230   -0.392428    0.000000
      4          1           0       -0.495436   -1.474412    0.000000
      5          6           0       -1.847809    0.139389    0.000000
      6          1           0       -1.997523    1.215529    0.000000
      7          1           0       -2.738153   -0.479572    0.000000
      8          6           0        1.847809   -0.139389    0.000000
      9          1           0        1.997523   -1.215529    0.000000
     10          1           0        2.738153    0.479572    0.000000
 ---------------------------------------------------------------------
                    Distance matrix (angstroms):
                    1          2          3          4          5
     1  C    0.000000
     2  H    1.088818   0.000000
     3  C    1.462837   2.173274   0.000000
     4  H    2.173274   3.110851   1.088818   0.000000
     5  C    2.477992   2.696866   1.340579   2.105532   0.000000
     6  H    2.741246   2.506365   2.119135   3.080917   1.086505
     7  H    3.466840   3.778115   2.122712   2.453464   1.084354
     8  C    1.340579   2.105532   2.477992   2.696866   3.706117
     9  H    2.119135   3.080917   2.741246   2.506365   4.077055
    10  H    2.122712   2.453464   3.466840   3.778115   4.598561
                    6          7          8          9         10
     6  H    0.000000
     7  H    1.849838   0.000000
     8  C    4.077055   4.598561   0.000000
     9  H    4.676584   4.792521   1.086505   0.000000
    10  H    4.792521   5.559665   1.084354   1.849838   0.000000
 Stoichiometry    C4H6
 Framework group  C2H[SGH(C4H6)]
 Deg. of freedom     9
 Full point group                 C2H     NOp   4
 Largest Abelian subgroup         C2H     NOp   4
 Largest concise Abelian subgroup C2      NOp   2
                         Standard orientation:                         
 ---------------------------------------------------------------------
 Center     Atomic      Atomic             Coordinates (Angstroms)
 Number     Number       Type             X           Y           Z
 ---------------------------------------------------------------------
      1          6           0       -0.327348    0.654076    0.000000
      2          1           0       -1.416114    0.643405    0.000000
      3          6           0        0.327348   -0.654076    0.000000
      4          1           0        1.416114   -0.643405    0.000000
      5          6           0       -0.327348   -1.823916    0.000000
      6          1           0       -1.413151   -1.862958    0.000000
      7          1           0        0.197460   -2.772811    0.000000
      8          6           0        0.327348    1.823916    0.000000
      9          1           0        1.413151    1.862958    0.000000
     10          1           0       -0.197460    2.772811    0.000000
 ---------------------------------------------------------------------
 Rotational constants (GHZ):          42.2095371           4.4041243           3.9880164
 Standard basis: 6-31+G (6D, 7F)
 There are    26 symmetry adapted cartesian basis functions of AG  symmetry.
 There are     6 symmetry adapted cartesian basis functions of BG  symmetry.
 There are     6 symmetry adapted cartesian basis functions of AU  symmetry.
 There are    26 symmetry adapted cartesian basis functions of BU  symmetry.
 There are    26 symmetry adapted basis functions of AG  symmetry.
 There are     6 symmetry adapted basis functions of BG  symmetry.
 There are     6 symmetry adapted basis functions of AU  symmetry.
 There are    26 symmetry adapted basis functions of BU  symmetry.
    64 basis functions,   128 primitive gaussians,    64 cartesian basis functions
    15 alpha electrons       15 beta electrons
       nuclear repulsion energy       103.5086038066 Hartrees.
 NAtoms=   10 NActive=   10 NUniq=    5 SFac= 4.00D+00 NAtFMM=   60 NAOKFM=F Big=F
 Integral buffers will be    131072 words long.
 Raffenetti 2 integral format.
 Two-electron integral symmetry is turned on.
 One-electron integrals computed using PRISM.
 NBasis=    64 RedAO= T EigKep=  2.84D-05  NBF=    26     6     6    26
 NBsUse=    64 1.00D-06 EigRej= -1.00D+00 NBFU=    26     6     6    26
 Initial guess from the checkpoint file:  "butadiene_scan_cam.chk"
 B after Tr=    -0.000000   -0.000000    0.000000
         Rot=    0.999999   -0.000000   -0.000000   -0.001668 Ang=  -0.19 deg.
 Initial guess orbital symmetries:
       Occupied  (AG) (BU) (BU) (AG) (AG) (BU) (AG) (BU) (BU) (AG)
                 (AG) (BU) (AG) (AU) (BG)
       Virtual   (AU) (AG) (BU) (BU) (BG) (AG) (AG) (AU) (BU) (BG)
                 (AG) (BU) (AU) (BU) (AG) (BG) (AG) (BU) (BU) (AG)
                 (BU) (AG) (BU) (AG) (AG) (BU) (BU) (BU) (AG) (AU)
                 (BG) (BU) (BG) (AU) (AG) (BU) (AG) (AG) (BU) (AG)
                 (BU) (AG) (BU) (BU) (AG) (AG) (BU) (AG) (BU)
 ExpMin= 4.38D-02 ExpMax= 3.05D+03 ExpMxC= 4.57D+02 IAcc=3 IRadAn=         5 AccDes= 0.00D+00
 Harris functional with IExCor=20419 and IRadAn=       5 diagonalized for initial guess.
 HarFok:  IExCor=20419 AccDes= 0.00D+00 IRadAn=         5 IDoV= 1 UseB2=F ITyADJ=14
 ICtDFT=  3500011 ScaDFX=  1.000000  1.000000  1.000000  1.000000
 FoFCou: FMM=F IPFlag=           0 FMFlag=      100000 FMFlg1=           0
         NFxFlg=           0 DoJE=T BraDBF=F KetDBF=T FulRan=T
         wScrn=  0.000000 ICntrl=       500 IOpCl=  0 I1Cent=   200000004 NGrid=           0
         NMat0=    1 NMatS0=      1 NMatT0=    0 NMatD0=    1 NMtDS0=    0 NMtDT0=    0
 Petite list used in FoFCou.
 Keep R1 ints in memory in symmetry-blocked form, NReq=5592225.
 Requested convergence on RMS density matrix=1.00D-08 within 128 cycles.
 Requested convergence on MAX density matrix=1.00D-06.
 Requested convergence on             energy=1.00D-06.
 No special actions if energy rises.
 SCF Done:  E(RCAM-B3LYP) =  -155.861680988     A.U. after    9 cycles
            NFock=  9  Conv=0.15D-08     -V/T= 2.0059
 Calling FoFJK, ICntrl=      2127 FMM=F ISym2X=1 I1Cent= 0 IOpClX= 0 NMat=1 NMatS=1 NMatT=0.
 ***** Axes restored to original set *****
 -------------------------------------------------------------------
 Center     Atomic                   Forces (Hartrees/Bohr)
 Number     Number              X              Y              Z
 -------------------------------------------------------------------
      1        6          -0.000095127   -0.000283473   -0.000000000
      2        1           0.000309864    0.000287151   -0.000000000
      3        6           0.000095127    0.000283473   -0.000000000
      4        1          -0.000309864   -0.000287151   -0.000000000
      5        6           0.001261507   -0.000548690   -0.000000000
      6        1          -0.000535017    0.000056334   -0.000000000
      7        1           0.000115898    0.000357257   -0.000000000
      8        6          -0.001261507    0.000548690   -0.000000000
      9        1           0.000535017   -0.000056334   -0.000000000
     10        1          -0.000115898   -0.000357257   -0.000000000
 -------------------------------------------------------------------
 Cartesian Forces:  Max     0.001261507 RMS     0.000415597

 GradGradGradGradGradGradGradGradGradGradGradGradGradGradGradGradGradGrad
 Berny optimization.
 Using GEDIIS/GDIIS optimizer.
 FormGI is forming the generalized inverse of G from B-inverse, IUseBI=4.
 Internal  Forces:  Max     0.000826772 RMS     0.000333043
 Search for a local minimum.
 Step number   3 out of a maximum of   43 on scan point     1 out of    19
 All quantities printed in internal units (Hartrees-Bohrs-Radians)
 Mixed Optimization -- En-DIIS/RFO-DIIS
 Update second derivatives using D2CorX and points    1    2    3
 DE= -2.56D-04 DEPred=-2.54D-04 R= 1.01D+00
 TightC=F SS=  1.41D+00  RLast= 5.25D-02 DXNew= 8.4853D-01 1.5765D-01
 Trust test= 1.01D+00 RLast= 5.25D-02 DXMaxT set to 5.05D-01
 ITU=  1  1  0
 Use linear search instead of GDIIS.
     Eigenvalues ---    0.00880   0.01502   0.02681   0.02681   0.02681
     Eigenvalues ---    0.02681   0.13173   0.16000   0.16000   0.16000
     Eigenvalues ---    0.16171   0.16459   0.22000   0.22352   0.30452
     Eigenvalues ---    0.36569   0.37230   0.37230   0.37230   0.37242
     Eigenvalues ---    0.37878   0.53930   0.548071000.000001000.00000
     Eigenvalues --- 1000.000001000.000001000.000001000.000001000.00000
     Eigenvalues --- 1000.000001000.000001000.00000
 RFO step:  Lambda=-1.55765601D-05 EMin= 8.80478126D-03
 Quartic linear search produced a step of  0.05221.
 Iteration  1 RMS(Cart)=  0.00197637 RMS(Int)=  0.00000415
 Iteration  2 RMS(Cart)=  0.00000398 RMS(Int)=  0.00000000
 Iteration  3 RMS(Cart)=  0.00000000 RMS(Int)=  0.00000000
 Iteration  1 RMS(Cart)=  0.00000000 RMS(Int)=  0.00000000
 ClnCor:  largest displacement from symmetrization is 3.11D-12 for atom     8.
 Variable       Old X    -DE/DX   Delta X   Delta X   Delta X     New X
                                 (Linear)    (Quad)   (Total)
    R1        2.05757   0.00025   0.00029   0.00069   0.00097   2.05854
    R2        2.76436  -0.00046  -0.00028  -0.00186  -0.00214   2.76222
    R3        2.53333  -0.00083  -0.00002  -0.00167  -0.00169   2.53164
    R4        2.05757   0.00025   0.00029   0.00069   0.00097   2.05854
    R5        2.53333  -0.00083  -0.00002  -0.00167  -0.00169   2.53164
    R6        2.05320   0.00013   0.00015   0.00038   0.00053   2.05373
    R7        2.04913  -0.00030   0.00000  -0.00079  -0.00079   2.04834
    R8        2.05320   0.00013   0.00015   0.00038   0.00053   2.05373
    R9        2.04913  -0.00030   0.00000  -0.00079  -0.00079   2.04834
    A1        2.02502   0.00044  -0.00039   0.00278   0.00239   2.02741
    A2        2.09082  -0.00026  -0.00079  -0.00163  -0.00242   2.08840
    A3        2.16735  -0.00018   0.00118  -0.00115   0.00003   2.16738
    A4        2.02502   0.00044  -0.00039   0.00278   0.00239   2.02741
    A5        2.16735  -0.00018   0.00118  -0.00115   0.00003   2.16738
    A6        2.09082  -0.00026  -0.00079  -0.00163  -0.00242   2.08840
    A7        2.11696   0.00056   0.00033   0.00361   0.00394   2.12089
    A8        2.12617  -0.00005   0.00064  -0.00046   0.00017   2.12635
    A9        2.04005  -0.00051  -0.00096  -0.00315  -0.00411   2.03594
   A10        2.11696   0.00056   0.00033   0.00361   0.00394   2.12089
   A11        2.12617  -0.00005   0.00064  -0.00046   0.00017   2.12635
   A12        2.04005  -0.00051  -0.00096  -0.00315  -0.00411   2.03594
    D1        3.14159   0.00000   0.00000   0.00000   0.00000   3.14159
    D2        0.00000   0.00000   0.00000   0.00000   0.00000   0.00000
    D3        0.00000   0.00000   0.00000   0.00000   0.00000   0.00000
    D4        3.14159   0.00000   0.00000   0.00000   0.00000   3.14159
    D5        3.14159  -0.00000   0.00000   0.00000   0.00000   3.14159
    D6        0.00000  -0.00000   0.00000  -0.00000   0.00000   0.00000
    D7        0.00000  -0.00000   0.00000   0.00000   0.00000   0.00000
    D8        3.14159   0.00000   0.00000   0.00000   0.00000   3.14159
    D9        0.00000  -0.00000   0.00000   0.00000   0.00000   0.00000
   D10        3.14159   0.00000   0.00000   0.00000   0.00000   3.14159
   D11        3.14159  -0.00000   0.00000   0.00000   0.00000   3.14159
   D12        0.00000  -0.00000   0.00000  -0.00000   0.00000   0.00000
         Item               Value     Threshold  Converged?
 Maximum Force            0.000827     0.000450     NO 
 RMS     Force            0.000338     0.000300     NO 
 Maximum Displacement     0.005522     0.001800     NO 
 RMS     Displacement     0.001977     0.001200     NO 
 Predicted change in Energy=-8.394400D-06
 GradGradGradGradGradGradGradGradGradGradGradGradGradGradGradGradGradGrad

                          Input orientation:                          
 ---------------------------------------------------------------------
 Center     Atomic      Atomic             Coordinates (Angstroms)
 Number     Number       Type             X           Y           Z
 ---------------------------------------------------------------------
      1          6           0        0.616787    0.392071    0.000000
      2          1           0        0.497616    1.474867    0.000000
      3          6           0       -0.616787   -0.392071    0.000000
      4          1           0       -0.497616   -1.474867    0.000000
      5          6           0       -1.846516    0.139459    0.000000
      6          1           0       -2.000445    1.215288    0.000000
      7          1           0       -2.736657   -0.479058    0.000000
      8          6           0        1.846516   -0.139459    0.000000
      9          1           0        2.000445   -1.215288    0.000000
     10          1           0        2.736657    0.479058    0.000000
 ---------------------------------------------------------------------
                    Distance matrix (angstroms):
                    1          2          3          4          5
     1  C    0.000000
     2  H    1.089334   0.000000
     3  C    1.461707   2.174248   0.000000
     4  H    2.174248   3.113104   1.089334   0.000000
     5  C    2.476222   2.697827   1.339685   2.103706   0.000000
     6  H    2.743646   2.511512   2.120875   3.081465   1.086786
     7  H    3.464744   3.778670   2.121653   2.450498   1.083934
     8  C    1.339685   2.103706   2.476222   2.697827   3.703549
     9  H    2.120875   3.081465   2.743646   2.511512   4.078535
    10  H    2.121653   2.450498   3.464744   3.778670   4.595737
                    6          7          8          9         10
     6  H    0.000000
     7  H    1.847381   0.000000
     8  C    4.078535   4.595737   0.000000
     9  H    4.681327   4.793972   1.086786   0.000000
    10  H    4.793972   5.556541   1.083934   1.847381   0.000000
 Stoichiometry    C4H6
 Framework group  C2H[SGH(C4H6)]
 Deg. of freedom     9
 Full point group                 C2H     NOp   4
 Largest Abelian subgroup         C2H     NOp   4
 Largest concise Abelian subgroup C2      NOp   2
                         Standard orientation:                         
 ---------------------------------------------------------------------
 Center     Atomic      Atomic             Coordinates (Angstroms)
 Number     Number       Type             X           Y           Z
 ---------------------------------------------------------------------
      1          6           0       -0.327104    0.653567    0.000000
      2          1           0       -1.416408    0.645479    0.000000
      3          6           0        0.327104   -0.653567    0.000000
      4          1           0        1.416408   -0.645479    0.000000
      5          6           0       -0.327104   -1.822655    0.000000
      6          1           0       -1.413024   -1.866030    0.000000
      7          1           0        0.197378   -2.771250    0.000000
      8          6           0        0.327104    1.822655    0.000000
      9          1           0        1.413024    1.866030    0.000000
     10          1           0       -0.197378    2.771250    0.000000
 ---------------------------------------------------------------------
 Rotational constants (GHZ):          42.2306752           4.4085841           3.9918620
 Standard basis: 6-31+G (6D, 7F)
 There are    26 symmetry adapted cartesian basis functions of AG  symmetry.
 There are     6 symmetry adapted cartesian basis functions of BG  symmetry.
 There are     6 symmetry adapted cartesian basis functions of AU  symmetry.
 There are    26 symmetry adapted cartesian basis functions of BU  symmetry.
 There are    26 symmetry adapted basis functions of AG  symmetry.
 There are     6 symmetry adapted basis functions of BG  symmetry.
 There are     6 symmetry adapted basis functions of AU  symmetry.
 There are    26 symmetry adapted basis functions of BU  symmetry.
    64 basis functions,   128 primitive gaussians,    64 cartesian basis functions
    15 alpha electrons       15 beta electrons
       nuclear repulsion energy       103.5491275344 Hartrees.
 NAtoms=   10 NActive=   10 NUniq=    5 SFac= 4.00D+00 NAtFMM=   60 NAOKFM=F Big=F
 Integral buffers will be    131072 words long.
 Raffenetti 2 integral format.
 Two-electron integral symmetry is turned on.
 One-electron integrals computed using PRISM.
 NBasis=    64 RedAO= T EigKep=  2.82D-05  NBF=    26     6     6    26
 NBsUse=    64 1.00D-06 EigRej= -1.00D+00 NBFU=    26     6     6    26
 Initial guess from the checkpoint file:  "butadiene_scan_cam.chk"
 B after Tr=     0.000000    0.000000   -0.000000
         Rot=    1.000000    0.000000    0.000000   -0.000027 Ang=  -0.00 deg.
 Initial guess orbital symmetries:
       Occupied  (AG) (BU) (BU) (AG) (AG) (BU) (AG) (BU) (BU) (AG)
                 (AG) (BU) (AG) (AU) (BG)
       Virtual   (AU) (AG) (BU) (BU) (BG) (AG) (AG) (AU) (BU) (BG)
                 (AG) (BU) (AU) (BU) (AG) (BG) (AG) (BU) (BU) (AG)
                 (BU) (AG) (BU) (AG) (AG) (BU) (BU) (BU) (AG) (AU)
                 (BG) (BU) (BG) (AU) (AG) (BU) (AG) (AG) (BU) (BU)
                 (AG) (AG) (BU) (BU) (AG) (AG) (BU) (AG) (BU)
 Keep R1 ints in memory in symmetry-blocked form, NReq=5592225.
 Requested convergence on RMS density matrix=1.00D-08 within 128 cycles.
 Requested convergence on MAX density matrix=1.00D-06.
 Requested convergence on             energy=1.00D-06.
 No special actions if energy rises.
 SCF Done:  E(RCAM-B3LYP) =  -155.861689435     A.U. after    8 cycles
            NFock=  8  Conv=0.62D-08     -V/T= 2.0059
 Calling FoFJK, ICntrl=      2127 FMM=F ISym2X=1 I1Cent= 0 IOpClX= 0 NMat=1 NMatS=1 NMatT=0.
 ***** Axes restored to original set *****
 -------------------------------------------------------------------
 Center     Atomic                   Forces (Hartrees/Bohr)
 Number     Number              X              Y              Z
 -------------------------------------------------------------------
      1        6          -0.000090165    0.000431921   -0.000000000
      2        1           0.000047082   -0.000106498   -0.000000000
      3        6           0.000090165   -0.000431921   -0.000000000
      4        1          -0.000047082    0.000106498   -0.000000000
      5        6          -0.000043713    0.000203700   -0.000000000
      6        1          -0.000080417   -0.000060272   -0.000000000
      7        1          -0.000085250   -0.000005182   -0.000000000
      8        6           0.000043713   -0.000203700   -0.000000000
      9        1           0.000080417    0.000060272   -0.000000000
     10        1           0.000085250    0.000005182   -0.000000000
 -------------------------------------------------------------------
 Cartesian Forces:  Max     0.000431921 RMS     0.000133926

 GradGradGradGradGradGradGradGradGradGradGradGradGradGradGradGradGradGrad
 Berny optimization.
 Using GEDIIS/GDIIS optimizer.
 FormGI is forming the generalized inverse of G from B-inverse, IUseBI=4.
 Internal  Forces:  Max     0.000247130 RMS     0.000089183
 Search for a local minimum.
 Step number   4 out of a maximum of   43 on scan point     1 out of    19
 All quantities printed in internal units (Hartrees-Bohrs-Radians)
 Mixed Optimization -- En-DIIS/RFO-DIIS
 Swapping is turned off.
 Update second derivatives using D2CorX and points    1    2    3    4
 DE= -8.45D-06 DEPred=-8.39D-06 R= 1.01D+00
 TightC=F SS=  1.41D+00  RLast= 1.01D-02 DXNew= 8.4853D-01 3.0295D-02
 Trust test= 1.01D+00 RLast= 1.01D-02 DXMaxT set to 5.05D-01
 ITU=  1  1  1  0
     Eigenvalues ---    0.00878   0.01499   0.02681   0.02681   0.02681
     Eigenvalues ---    0.02681   0.11374   0.16000   0.16000   0.16000
     Eigenvalues ---    0.16127   0.16263   0.21893   0.22000   0.31087
     Eigenvalues ---    0.37188   0.37230   0.37230   0.37230   0.37345
     Eigenvalues ---    0.38264   0.53930   0.608531000.000001000.00000
     Eigenvalues --- 1000.000001000.000001000.000001000.000001000.00000
     Eigenvalues --- 1000.000001000.000001000.00000
 En-DIIS/RFO-DIIS/Sim-DIIS IScMMF=       -3 using points:     4    3
 RFO step:  Lambda=-7.66007543D-07.
 DidBck=F Rises=F RFO-DIIS coefs:    1.10285   -0.10285
 Iteration  1 RMS(Cart)=  0.00051841 RMS(Int)=  0.00000009
 Iteration  2 RMS(Cart)=  0.00000010 RMS(Int)=  0.00000000
 Iteration  1 RMS(Cart)=  0.00000000 RMS(Int)=  0.00000000
 ClnCor:  largest displacement from symmetrization is 1.59D-12 for atom     8.
 Variable       Old X    -DE/DX   Delta X   Delta X   Delta X     New X
                                 (Linear)    (Quad)   (Total)
    R1        2.05854  -0.00011   0.00010  -0.00036  -0.00026   2.05829
    R2        2.76222   0.00024  -0.00022   0.00091   0.00069   2.76291
    R3        2.53164   0.00025  -0.00017   0.00055   0.00038   2.53201
    R4        2.05854  -0.00011   0.00010  -0.00036  -0.00026   2.05829
    R5        2.53164   0.00025  -0.00017   0.00055   0.00038   2.53201
    R6        2.05373  -0.00005   0.00005  -0.00015  -0.00010   2.05363
    R7        2.04834   0.00007  -0.00008   0.00026   0.00018   2.04852
    R8        2.05373  -0.00005   0.00005  -0.00015  -0.00010   2.05363
    R9        2.04834   0.00007  -0.00008   0.00026   0.00018   2.04852
    A1        2.02741   0.00006   0.00025   0.00014   0.00039   2.02780
    A2        2.08840  -0.00002  -0.00025   0.00006  -0.00018   2.08821
    A3        2.16738  -0.00004   0.00000  -0.00021  -0.00021   2.16717
    A4        2.02741   0.00006   0.00025   0.00014   0.00039   2.02780
    A5        2.16738  -0.00004   0.00000  -0.00021  -0.00021   2.16717
    A6        2.08840  -0.00002  -0.00025   0.00006  -0.00018   2.08821
    A7        2.12089   0.00009   0.00040   0.00031   0.00071   2.12160
    A8        2.12635   0.00000   0.00002  -0.00003  -0.00001   2.12634
    A9        2.03594  -0.00009  -0.00042  -0.00028  -0.00070   2.03524
   A10        2.12089   0.00009   0.00040   0.00031   0.00071   2.12160
   A11        2.12635   0.00000   0.00002  -0.00003  -0.00001   2.12634
   A12        2.03594  -0.00009  -0.00042  -0.00028  -0.00070   2.03524
    D1        3.14159   0.00000   0.00000  -0.00000   0.00000   3.14159
    D2        0.00000   0.00000   0.00000  -0.00000   0.00000   0.00000
    D3        0.00000   0.00000   0.00000  -0.00000   0.00000   0.00000
    D4        3.14159   0.00000   0.00000   0.00000   0.00000   3.14159
    D5        3.14159  -0.00000   0.00000  -0.00000   0.00000   3.14159
    D6        0.00000  -0.00000   0.00000   0.00000   0.00000   0.00000
    D7        0.00000   0.00000   0.00000  -0.00000   0.00000   0.00000
    D8        3.14159   0.00000   0.00000   0.00000   0.00000   3.14159
    D9        0.00000  -0.00000   0.00000  -0.00000   0.00000   0.00000
   D10        3.14159   0.00000   0.00000  -0.00000   0.00000   3.14159
   D11        3.14159  -0.00000   0.00000  -0.00000   0.00000   3.14159
   D12        0.00000   0.00000   0.00000  -0.00000   0.00000   0.00000
         Item               Value     Threshold  Converged?
 Maximum Force            0.000247     0.000450     YES
 RMS     Force            0.000091     0.000300     YES
 Maximum Displacement     0.001646     0.001800     YES
 RMS     Displacement     0.000518     0.001200     YES
 Predicted change in Energy=-3.830049D-07
 Optimization completed.
    -- Stationary point found.
                           ----------------------------
                           !   Optimized Parameters   !
                           ! (Angstroms and Degrees)  !
 --------------------------                            --------------------------
 ! Name  Definition              Value          Derivative Info.                !
 --------------------------------------------------------------------------------
 ! R1    R(1,2)                  1.0893         -DE/DX =   -0.0001              !
 ! R2    R(1,3)                  1.4617         -DE/DX =    0.0002              !
 ! R3    R(1,8)                  1.3397         -DE/DX =    0.0002              !
 ! R4    R(3,4)                  1.0893         -DE/DX =   -0.0001              !
 ! R5    R(3,5)                  1.3397         -DE/DX =    0.0002              !
 ! R6    R(5,6)                  1.0868         -DE/DX =    0.0                 !
 ! R7    R(5,7)                  1.0839         -DE/DX =    0.0001              !
 ! R8    R(8,9)                  1.0868         -DE/DX =    0.0                 !
 ! R9    R(8,10)                 1.0839         -DE/DX =    0.0001              !
 ! A1    A(2,1,3)              116.1621         -DE/DX =    0.0001              !
 ! A2    A(2,1,8)              119.6562         -DE/DX =    0.0                 !
 ! A3    A(3,1,8)              124.1816         -DE/DX =    0.0                 !
 ! A4    A(1,3,4)              116.1621         -DE/DX =    0.0001              !
 ! A5    A(1,3,5)              124.1816         -DE/DX =    0.0                 !
 ! A6    A(4,3,5)              119.6562         -DE/DX =    0.0                 !
 ! A7    A(3,5,6)              121.5182         -DE/DX =    0.0001              !
 ! A8    A(3,5,7)              121.8308         -DE/DX =    0.0                 !
 ! A9    A(6,5,7)              116.651          -DE/DX =   -0.0001              !
 ! A10   A(1,8,9)              121.5182         -DE/DX =    0.0001              !
 ! A11   A(1,8,10)             121.8308         -DE/DX =    0.0                 !
 ! A12   A(9,8,10)             116.651          -DE/DX =   -0.0001              !
 ! D1    D(2,1,3,4)            180.0            -DE/DX =    0.0                 !
 ! D2    D(2,1,3,5)              0.0            -DE/DX =    0.0                 !
 ! D3    D(8,1,3,4)              0.0            -DE/DX =    0.0                 !
 ! D4    D(8,1,3,5)            180.0            -DE/DX =    0.0                 !
 ! D5    D(2,1,8,9)            180.0            -DE/DX =    0.0                 !
 ! D6    D(2,1,8,10)             0.0            -DE/DX =    0.0                 !
 ! D7    D(3,1,8,9)              0.0            -DE/DX =    0.0                 !
 ! D8    D(3,1,8,10)           180.0            -DE/DX =    0.0                 !
 ! D9    D(1,3,5,6)              0.0            -DE/DX =    0.0                 !
 ! D10   D(1,3,5,7)            180.0            -DE/DX =    0.0                 !
 ! D11   D(4,3,5,6)            180.0            -DE/DX =    0.0                 !
 ! D12   D(4,3,5,7)              0.0            -DE/DX =    0.0                 !
 --------------------------------------------------------------------------------
 Iteration  1 RMS(Cart)=  0.03227652 RMS(Int)=  0.02165888
 Iteration  2 RMS(Cart)=  0.00094020 RMS(Int)=  0.02165216
 Iteration  3 RMS(Cart)=  0.00000664 RMS(Int)=  0.02165216
 Iteration  4 RMS(Cart)=  0.00000023 RMS(Int)=  0.02165216
 Iteration  1 RMS(Cart)=  0.01641141 RMS(Int)=  0.01099097
 Iteration  2 RMS(Cart)=  0.00834807 RMS(Int)=  0.01228528
 Iteration  3 RMS(Cart)=  0.00424099 RMS(Int)=  0.01375981
 Iteration  4 RMS(Cart)=  0.00215258 RMS(Int)=  0.01465494
 Iteration  5 RMS(Cart)=  0.00109201 RMS(Int)=  0.01513930
 Iteration  6 RMS(Cart)=  0.00055382 RMS(Int)=  0.01539189
 Iteration  7 RMS(Cart)=  0.00028084 RMS(Int)=  0.01552165
 Iteration  8 RMS(Cart)=  0.00014240 RMS(Int)=  0.01558787
 Iteration  9 RMS(Cart)=  0.00007220 RMS(Int)=  0.01562155
 Iteration 10 RMS(Cart)=  0.00003661 RMS(Int)=  0.01563866
 Iteration 11 RMS(Cart)=  0.00001856 RMS(Int)=  0.01564733
 Iteration 12 RMS(Cart)=  0.00000941 RMS(Int)=  0.01565174
 Iteration 13 RMS(Cart)=  0.00000477 RMS(Int)=  0.01565397
 Iteration 14 RMS(Cart)=  0.00000242 RMS(Int)=  0.01565510
 Iteration 15 RMS(Cart)=  0.00000123 RMS(Int)=  0.01565568
 Iteration 16 RMS(Cart)=  0.00000062 RMS(Int)=  0.01565597
 GradGradGradGradGradGradGradGradGradGradGradGradGradGradGradGradGradGrad

                          Input orientation:                          
 ---------------------------------------------------------------------
 Center     Atomic      Atomic             Coordinates (Angstroms)
 Number     Number       Type             X           Y           Z
 ---------------------------------------------------------------------
      1          6           0        0.617202    0.391759    0.074228
      2          1           0        0.500693    1.474707    0.075545
      3          6           0       -0.617202   -0.391758    0.074228
      4          1           0       -0.500693   -1.474707    0.075545
      5          6           0       -1.844125    0.138699   -0.022478
      6          1           0       -1.997198    1.213718   -0.067942
      7          1           0       -2.733409   -0.480210   -0.059353
      8          6           0        1.844125   -0.138699   -0.022478
      9          1           0        1.997198   -1.213718   -0.067942
     10          1           0        2.733409    0.480210   -0.059353
 ---------------------------------------------------------------------
                    Distance matrix (angstroms):
                    1          2          3          4          5
     1  C    0.000000
     2  H    1.089199   0.000000
     3  C    1.462071   2.175634   0.000000
     4  H    2.175634   3.114774   1.089199   0.000000
     5  C    2.476191   2.700500   1.340179   2.101785   0.000000
     6  H    2.744251   2.515584   2.121828   3.080218   1.086813
     7  H    3.464790   3.781444   2.122263   2.447906   1.084082
     8  C    1.340179   2.101785   2.476191   2.700500   3.698668
     9  H    2.121828   3.080218   2.744251   2.515584   4.072697
    10  H    2.122263   2.447906   3.464790   3.781444   4.590404
                    6          7          8          9         10
     6  H    0.000000
     7  H    1.847017   0.000000
     8  C    4.072697   4.590404   0.000000
     9  H    4.674146   4.787144   1.086813   0.000000
    10  H    4.787144   5.550542   1.084082   1.847017   0.000000
 Stoichiometry    C4H6
 Framework group  C1[X(C4H6)]
 Deg. of freedom    24
 Full point group                 C1      NOp   1
 Omega: Change in point group or standard orientation.

 Old FWG=C02H [SGH(C4H6)]
 New FWG=C01  [X(C4H6)]
 Largest Abelian subgroup         C1      NOp   1
 Largest concise Abelian subgroup C1      NOp   1
                         Standard orientation:                         
 ---------------------------------------------------------------------
 Center     Atomic      Atomic             Coordinates (Angstroms)
 Number     Number       Type             X           Y           Z
 ---------------------------------------------------------------------
      1          6           0        0.611059    0.401273    0.056978
      2          1           0        0.477788    1.482287    0.058295
      3          6           0       -0.611059   -0.401273    0.056978
      4          1           0       -0.477787   -1.482287    0.058295
      5          6           0       -1.846053    0.110114   -0.039728
      6          1           0       -2.015760    1.182633   -0.085192
      7          1           0       -2.725642   -0.522497   -0.076602
      8          6           0        1.846053   -0.110114   -0.039728
      9          1           0        2.015760   -1.182633   -0.085192
     10          1           0        2.725642    0.522497   -0.076602
 ---------------------------------------------------------------------
 Rotational constants (GHZ):          41.7685538           4.4127554           4.0004758
 Standard basis: 6-31+G (6D, 7F)
 There are    64 symmetry adapted cartesian basis functions of A   symmetry.
 There are    64 symmetry adapted basis functions of A   symmetry.
    64 basis functions,   128 primitive gaussians,    64 cartesian basis functions
    15 alpha electrons       15 beta electrons
       nuclear repulsion energy       103.5421490588 Hartrees.
 NAtoms=   10 NActive=   10 NUniq=   10 SFac= 1.00D+00 NAtFMM=   60 NAOKFM=F Big=F
 Integral buffers will be    131072 words long.
 Raffenetti 2 integral format.
 Two-electron integral symmetry is turned on.
 One-electron integrals computed using PRISM.
 NBasis=    64 RedAO= T EigKep=  3.21D-05  NBF=    64
 NBsUse=    64 1.00D-06 EigRej= -1.00D+00 NBFU=    64
 Initial guess from the checkpoint file:  "butadiene_scan_cam.chk"
 B after Tr=    -0.000000    0.000000    0.000000
         Rot=    0.747497   -0.000000   -0.000000    0.664265 Ang=  83.25 deg.
 Keep R1 ints in memory in canonical form, NReq=5218587.
 Requested convergence on RMS density matrix=1.00D-08 within 128 cycles.
 Requested convergence on MAX density matrix=1.00D-06.
 Requested convergence on             energy=1.00D-06.
 No special actions if energy rises.
 SCF Done:  E(RCAM-B3LYP) =  -155.861184868     A.U. after   10 cycles
            NFock= 10  Conv=0.54D-08     -V/T= 2.0059
 Calling FoFJK, ICntrl=      2127 FMM=F ISym2X=0 I1Cent= 0 IOpClX= 0 NMat=1 NMatS=1 NMatT=0.
 ***** Axes restored to original set *****
 -------------------------------------------------------------------
 Center     Atomic                   Forces (Hartrees/Bohr)
 Number     Number              X              Y              Z
 -------------------------------------------------------------------
      1        6           0.000360087    0.000262027   -0.004806786
      2        1          -0.000190099   -0.000031698    0.002219189
      3        6          -0.000360088   -0.000262026   -0.004806785
      4        1           0.000190099    0.000031696    0.002219189
      5        6           0.000102536    0.000256586    0.002167637
      6        1          -0.000032479   -0.000042487    0.000481511
      7        1           0.000032736   -0.000022813   -0.000061552
      8        6          -0.000102537   -0.000256583    0.002167638
      9        1           0.000032479    0.000042484    0.000481511
     10        1          -0.000032734    0.000022815   -0.000061552
 -------------------------------------------------------------------
 Cartesian Forces:  Max     0.004806786 RMS     0.001489531

 GradGradGradGradGradGradGradGradGradGradGradGradGradGradGradGradGradGrad
 Berny optimization.
 FormGI is forming the generalized inverse of G from B-inverse, IUseBI=4.
 Internal  Forces:  Max     0.002855614 RMS     0.000852950
 Search for a local minimum.
 Step number   1 out of a maximum of   43 on scan point     2 out of    19
 All quantities printed in internal units (Hartrees-Bohrs-Radians)
 Mixed Optimization -- RFO/linear search
 Second derivative matrix not updated -- first step.
 ITU=  0
     Eigenvalues ---    0.00883   0.01509   0.02681   0.02681   0.02681
     Eigenvalues ---    0.02681   0.11370   0.15969   0.16000   0.16000
     Eigenvalues ---    0.16127   0.16224   0.21897   0.22009   0.31087
     Eigenvalues ---    0.37188   0.37230   0.37230   0.37230   0.37345
     Eigenvalues ---    0.38264   0.53930   0.608531000.000001000.00000
     Eigenvalues --- 1000.000001000.000001000.000001000.000001000.00000
     Eigenvalues --- 1000.000001000.000001000.00000
 RFO step:  Lambda=-6.96471377D-04 EMin= 8.82630989D-03
 Linear search not attempted -- first point.
 Iteration  1 RMS(Cart)=  0.04368685 RMS(Int)=  0.00193546
 Iteration  2 RMS(Cart)=  0.00171405 RMS(Int)=  0.00052528
 Iteration  3 RMS(Cart)=  0.00000095 RMS(Int)=  0.00052528
 Iteration  1 RMS(Cart)=  0.00002173 RMS(Int)=  0.00001456
 Iteration  2 RMS(Cart)=  0.00001104 RMS(Int)=  0.00001628
 Iteration  3 RMS(Cart)=  0.00000561 RMS(Int)=  0.00001824
 Iteration  4 RMS(Cart)=  0.00000285 RMS(Int)=  0.00001943
 Iteration  5 RMS(Cart)=  0.00000145 RMS(Int)=  0.00002007
 Iteration  6 RMS(Cart)=  0.00000073 RMS(Int)=  0.00002041
 Variable       Old X    -DE/DX   Delta X   Delta X   Delta X     New X
                                 (Linear)    (Quad)   (Total)
    R1        2.05829  -0.00001   0.00000   0.00000   0.00000   2.05829
    R2        2.76291   0.00008   0.00000   0.00036   0.00036   2.76328
    R3        2.53257  -0.00021   0.00000  -0.00030  -0.00030   2.53227
    R4        2.05829  -0.00001   0.00000   0.00000   0.00000   2.05829
    R5        2.53257  -0.00021   0.00000  -0.00030  -0.00030   2.53227
    R6        2.05378  -0.00006   0.00000  -0.00016  -0.00016   2.05362
    R7        2.04862  -0.00001   0.00000  -0.00003  -0.00003   2.04859
    R8        2.05378  -0.00006   0.00000  -0.00016  -0.00016   2.05362
    R9        2.04862  -0.00001   0.00000  -0.00003  -0.00003   2.04859
    A1        2.02919  -0.00030   0.00000   0.00005  -0.00118   2.02801
    A2        2.08467   0.00036   0.00000   0.00459   0.00336   2.08803
    A3        2.16618   0.00010   0.00000   0.00217   0.00094   2.16712
    A4        2.02919  -0.00030   0.00000   0.00005  -0.00118   2.02801
    A5        2.16618   0.00010   0.00000   0.00217   0.00094   2.16712
    A6        2.08467   0.00036   0.00000   0.00459   0.00336   2.08803
    A7        2.12172   0.00004   0.00000  -0.00007  -0.00010   2.12163
    A8        2.12642  -0.00005   0.00000  -0.00018  -0.00021   2.12621
    A9        2.03504   0.00002   0.00000   0.00025   0.00023   2.03528
   A10        2.12172   0.00004   0.00000  -0.00007  -0.00010   2.12163
   A11        2.12642  -0.00005   0.00000  -0.00018  -0.00021   2.12621
   A12        2.03504   0.00002   0.00000   0.00025   0.00023   2.03528
    D1       -3.13890   0.00174   0.00000   0.18597   0.18585  -2.95305
    D2        0.08861  -0.00056   0.00000   0.09298   0.09293   0.18154
    D3        0.08861  -0.00056   0.00000   0.09298   0.09293   0.18154
    D4       -2.96706  -0.00286   0.00000   0.00000   0.00000  -2.96706
    D5       -3.09736  -0.00159   0.00000  -0.06307  -0.06315   3.12267
    D6        0.04423  -0.00122   0.00000  -0.04980  -0.04989  -0.00566
    D7       -0.04425   0.00075   0.00000   0.03248   0.03256  -0.01169
    D8        3.09734   0.00111   0.00000   0.04574   0.04582  -3.14002
    D9       -0.04425   0.00075   0.00000   0.03248   0.03256  -0.01169
   D10        3.09734   0.00111   0.00000   0.04574   0.04582  -3.14002
   D11       -3.09736  -0.00159   0.00000  -0.06307  -0.06315   3.12267
   D12        0.04423  -0.00122   0.00000  -0.04980  -0.04989  -0.00566
         Item               Value     Threshold  Converged?
 Maximum Force            0.001781     0.000450     NO 
 RMS     Force            0.000483     0.000300     NO 
 Maximum Displacement     0.132440     0.001800     NO 
 RMS     Displacement     0.043686     0.001200     NO 
 Predicted change in Energy=-3.746724D-04
 GradGradGradGradGradGradGradGradGradGradGradGradGradGradGradGradGradGrad

                          Input orientation:                          
 ---------------------------------------------------------------------
 Center     Atomic      Atomic             Coordinates (Angstroms)
 Number     Number       Type             X           Y           Z
 ---------------------------------------------------------------------
      1          6           0        0.617348    0.391707    0.053630
      2          1           0        0.502065    1.470874    0.145629
      3          6           0       -0.617348   -0.391707    0.053630
      4          1           0       -0.502065   -1.470874    0.145629
      5          6           0       -1.844541    0.137733   -0.043004
      6          1           0       -1.996588    1.211117   -0.118560
      7          1           0       -2.735537   -0.479758   -0.037696
      8          6           0        1.844541   -0.137733   -0.043004
      9          1           0        1.996588   -1.211117   -0.118560
     10          1           0        2.735537    0.479758   -0.037696
 ---------------------------------------------------------------------
                    Distance matrix (angstroms):
                    1          2          3          4          5
     1  C    0.000000
     2  H    1.089200   0.000000
     3  C    1.462262   2.175031   0.000000
     4  H    2.175031   3.108402   1.089200   0.000000
     5  C    2.476840   2.705440   1.340018   2.103674   0.000000
     6  H    2.744767   2.525972   2.121555   3.081635   1.086729
     7  H    3.465491   3.784263   2.121985   2.450371   1.084066
     8  C    1.340018   2.103674   2.476840   2.705440   3.699352
     9  H    2.121555   3.081635   2.744767   2.525972   4.071778
    10  H    2.121985   2.450371   3.465491   3.784263   4.592834
                    6          7          8          9         10
     6  H    0.000000
     7  H    1.847064   0.000000
     8  C    4.071778   4.592834   0.000000
     9  H    4.670404   4.788991   1.086729   0.000000
    10  H    4.788991   5.554577   1.084066   1.847064   0.000000
 Stoichiometry    C4H6
 Framework group  C1[X(C4H6)]
 Deg. of freedom    24
 Full point group                 C1      NOp   1
 Largest Abelian subgroup         C1      NOp   1
 Largest concise Abelian subgroup C1      NOp   1
                         Standard orientation:                         
 ---------------------------------------------------------------------
 Center     Atomic      Atomic             Coordinates (Angstroms)
 Number     Number       Type             X           Y           Z
 ---------------------------------------------------------------------
      1          6           0        0.611436    0.400873    0.050088
[...]
     Eigenvalues --    -0.86169  -0.86137  -0.86045  -0.85898  -0.85711
           R1           1.08933   1.08916   1.08921   1.08926   1.08940
           R2           1.46171   1.46255   1.46412   1.46710   1.47090
           R3           1.33968   1.33982   1.33963   1.33921   1.33872
           R4           1.08933   1.08916   1.08921   1.08926   1.08940
           R5           1.33968   1.33982   1.33963   1.33921   1.33872
           R6           1.08679   1.08671   1.08671   1.08674   1.08671
           R7           1.08393   1.08408   1.08413   1.08427   1.08435
           R8           1.08679   1.08671   1.08671   1.08674   1.08671
           R9           1.08393   1.08408   1.08413   1.08427   1.08435
           A1         116.16213 116.19473 116.23084 116.26348 116.36501
           A2         119.65625 119.62257 119.53839 119.45579 119.28631
           A3         124.18162 124.15048 124.11362 124.05454 124.04629
           A4         116.16213 116.19473 116.23084 116.26348 116.36501
           A5         124.18162 124.15048 124.11362 124.05454 124.04629
           A6         119.65625 119.62257 119.53839 119.45579 119.28631
           A7         121.51822 121.57092 121.59608 121.64630 121.70836
           A8         121.83079 121.81755 121.78116 121.75850 121.65378
           A9         116.65099 116.61116 116.62206 116.59385 116.63596
           A10        121.51822 121.57092 121.59608 121.64630 121.70836
           A11        121.83079 121.81755 121.78116 121.75850 121.65378
           A12        116.65099 116.61116 116.62206 116.59385 116.63596
           D1         180.00000-174.15804-167.93049-161.02093-152.75769
           D2           0.00000   7.92094  16.03483  24.48959  33.62123
           D3           0.00000   7.92094  16.03483  24.48959  33.62123
           D4         180.00000-170.00007-159.99985-149.99989-139.99986
           D5         180.00000-179.47022-178.90636-178.44797-178.14454
           D6           0.00000   0.75753   1.40802   1.98773   2.37259
           D7           0.00000  -1.61620  -2.99493  -4.12377  -4.69825
           D8         180.00000 178.61155 177.31946 176.31193 175.81888
           D9           0.00000  -1.61620  -2.99493  -4.12377  -4.69825
           D10        180.00000 178.61155 177.31946 176.31193 175.81888
           D11        180.00000-179.47022-178.90636-178.44797-178.14454
           D12          0.00000   0.75753   1.40802   1.98773   2.37259
                           6         7         8         9        10
     Eigenvalues --    -0.85506  -0.85319  -0.85191  -0.85147  -0.85184
           R1           1.08943   1.08961   1.08990   1.09027   1.09061
           R2           1.47594   1.48109   1.48517   1.48639   1.48491
           R3           1.33793   1.33706   1.33616   1.33572   1.33573
           R4           1.08943   1.08961   1.08990   1.09027   1.09061
           R5           1.33793   1.33706   1.33616   1.33572   1.33573
           R6           1.08674   1.08654   1.08642   1.08619   1.08608
           R7           1.08454   1.08478   1.08497   1.08512   1.08513
           R8           1.08674   1.08654   1.08642   1.08619   1.08608
           R9           1.08454   1.08478   1.08497   1.08512   1.08513
           A1         116.46491 116.53844 116.47277 116.25114 115.98372
           A2         119.21169 119.14000 119.16531 119.18604 119.20790
           A3         124.03606 124.15780 124.33248 124.55724 124.74288
           A4         116.46491 116.53844 116.47277 116.25114 115.98372
           A5         124.03606 124.15780 124.33248 124.55724 124.74288
           A6         119.21169 119.14000 119.16531 119.18604 119.20790
           A7         121.75210 121.81061 121.77856 121.73284 121.63435
           A8         121.63104 121.52258 121.52374 121.50283 121.53762
           A9         116.61522 116.66614 116.69770 116.76378 116.82670
           A10        121.75210 121.81061 121.77856 121.73284 121.63435
           A11        121.63104 121.52258 121.52374 121.50283 121.53762
           A12        116.61522 116.66614 116.69770 116.76378 116.82670
           D1        -142.44561-129.40914-113.99266 -98.26080 -84.04350
           D2          43.77726  55.29548  68.00369  80.86966  92.97831
           D3          43.77726  55.29548  68.00369  80.86966  92.97831
           D4        -129.99987-119.99991-109.99996 -99.99989 -89.99988
           D5        -178.05476-178.36519-179.11032 179.84189 178.76000
           D6           2.42642   1.94515   0.90206  -0.43738  -1.67145
           D7          -4.43787  -3.18427  -1.15683   0.73516   1.82721
           D8         176.04331 177.12606 178.85555-179.54411-178.60424
           D9          -4.43787  -3.18427  -1.15683   0.73516   1.82721
           D10        176.04331 177.12606 178.85555-179.54411-178.60424
           D11       -178.05476-178.36519-179.11032 179.84189 178.76000
           D12          2.42642   1.94515   0.90206  -0.43738  -1.67145
                          11        12        13        14        15
     Eigenvalues --    -0.85278  -0.85399  -0.85520  -0.85618  -0.85676
           R1           1.09061   1.09043   1.09003   1.08972   1.08917
           R2           1.48213   1.47888   1.47588   1.47346   1.47223
           R3           1.33614   1.33683   1.33758   1.33830   1.33894
           R4           1.09061   1.09043   1.09003   1.08972   1.08917
           R5           1.33614   1.33683   1.33758   1.33830   1.33894
           R6           1.08595   1.08596   1.08597   1.08599   1.08601
           R7           1.08514   1.08503   1.08492   1.08481   1.08463
           R8           1.08595   1.08596   1.08597   1.08599   1.08601
           R9           1.08514   1.08503   1.08492   1.08481   1.08463
           A1         115.86071 115.86137 115.94919 115.93675 115.89378
           A2         119.22567 119.25708 119.25553 119.24752 119.06153
           A3         124.79113 124.74507 124.68482 124.74932 125.01803
           A4         115.86071 115.86137 115.94919 115.93675 115.89378
           A5         124.79113 124.74507 124.68482 124.74932 125.01803
           A6         119.22567 119.25708 119.25553 119.24752 119.06153
           A7         121.55111 121.47079 121.43218 121.45080 121.61931
           A8         121.55859 121.60674 121.63420 121.63656 121.57746
           A9         116.88923 116.92223 116.93350 116.91075 116.79772
           A10        121.55111 121.47079 121.43218 121.45080 121.61931
           A11        121.55859 121.60674 121.63420 121.63656 121.57746
           A12        116.88923 116.92223 116.93350 116.91075 116.79772
           D1         -71.85782 -61.40922 -52.27170 -44.00449 -36.19225
           D2         104.07110 114.29542 123.86411 132.99768 141.90388
           D3         104.07110 114.29542 123.86411 132.99768 141.90388
           D4         -79.99999 -69.99994 -60.00008 -50.00014 -39.99999
           D5         177.84094 177.13879 176.65036 176.42310 176.45432
           D6          -2.54738  -3.04481  -3.22026  -3.06130  -2.66407
           D7           2.03892   1.56939   0.63314  -0.48705  -1.58623
           D8        -178.34941-178.61421-179.23747-179.97145 179.29538
           D9           2.03892   1.56939   0.63314  -0.48705  -1.58623
           D10       -178.34941-178.61421-179.23747-179.97145 179.29538
           D11        177.84094 177.13879 176.65036 176.42310 176.45432
           D12         -2.54738  -3.04481  -3.22026  -3.06130  -2.66407
                          16        17        18        19
     Eigenvalues --    -0.85689  -0.85668  -0.85638  -0.85624
           R1           1.08873   1.08836   1.08809   1.08798
           R2           1.47187   1.47230   1.47302   1.47337
           R3           1.33935   1.33956   1.33966   1.33969
           R4           1.08873   1.08836   1.08809   1.08798
           R5           1.33935   1.33956   1.33966   1.33969
           R6           1.08598   1.08591   1.08584   1.08581
           R7           1.08449   1.08437   1.08430   1.08427
           R8           1.08598   1.08591   1.08584   1.08581
           R9           1.08449   1.08437   1.08430   1.08427
           A1         115.65691 115.34242 115.07276 114.96490
           A2         118.83860 118.57011 118.35001 118.26201
           A3         125.49896 126.08732 126.57715 126.77309
           A4         115.65691 115.34242 115.07276 114.96490
           A5         125.49896 126.08732 126.57715 126.77309
           A6         118.83860 118.57011 118.35001 118.26201
           A7         121.85992 122.15340 122.41156 122.51743
           A8         121.48549 121.36615 121.26184 121.21998
           A9         116.64594 116.47249 116.32348 116.26259
           A10        121.85992 122.15340 122.41156 122.51743
           A11        121.48549 121.36615 121.26184 121.21998
           A12        116.64594 116.47249 116.32348 116.26259
           D1         -28.26080 -19.71833 -10.21605   0.02035
           D2         150.86964 160.14090 169.89204-179.98975
           D3         150.86964 160.14090 169.89204-179.98975
           D4         -29.99992 -19.99987  -9.99987   0.00015
           D5         176.82321 177.54925 178.64126 179.96614
           D6          -2.07098  -1.38830  -0.69254  -0.01952
           D7          -2.28199  -2.30588  -1.46998  -0.02346
           D8         178.82382 178.75657 179.19621 179.99087
           D9          -2.28199  -2.30588  -1.46998  -0.02346
           D10        178.82382 178.75657 179.19621 179.99087
           D11        176.82321 177.54925 178.64126 179.96614
           D12         -2.07098  -1.38830  -0.69254  -0.01952
 GradGradGradGradGradGradGradGradGradGradGradGradGradGradGradGradGradGrad

                          Input orientation:                          
 ---------------------------------------------------------------------
 Center     Atomic      Atomic             Coordinates (Angstroms)
 Number     Number       Type             X           Y           Z
 ---------------------------------------------------------------------
      1          6           0        0.725040    0.130463    0.628747
      2          1           0        1.177010    0.211613    1.615075
      3          6           0       -0.725040   -0.130463    0.628747
      4          1           0       -1.177010   -0.211613    1.615075
      5          6           0       -1.514367   -0.272496   -0.444364
      6          1           0       -1.136527   -0.204128   -1.460017
      7          1           0       -2.576466   -0.463760   -0.339441
      8          6           0        1.514367    0.272496   -0.444364
      9          1           0        1.136527    0.204128   -1.460017
     10          1           0        2.576466    0.463760   -0.339441
 ---------------------------------------------------------------------
                    Distance matrix (angstroms):
                    1          2          3          4          5
     1  C    0.000000
     2  H    1.087982   0.000000
     3  C    1.473369   2.169713   0.000000
     4  H    2.169713   2.391763   1.087982   0.000000
     5  C    2.515728   3.423326   1.339693   2.087775   0.000000
     6  H    2.817857   3.870592   2.130183   3.075368   1.085812
     7  H    3.491480   4.285422   2.115715   2.417062   1.084272
     8  C    1.339693   2.087775   2.515728   3.423326   3.077376
     9  H    2.130183   3.075368   2.817857   3.870592   2.878535
    10  H    2.115715   2.417062   3.491480   4.285422   4.157883
                    6          7          8          9         10
     6  H    0.000000
     7  H    1.842966   0.000000
     8  C    2.878535   4.157883   0.000000
     9  H    2.309426   3.935490   1.085812   0.000000
    10  H    3.935490   5.235742   1.084272   1.842966   0.000000
 Stoichiometry    C4H6
 Framework group  C2[X(C4H6)]
 Deg. of freedom    13
 Full point group                 C2      NOp   2
 Largest Abelian subgroup         C2      NOp   2
 Largest concise Abelian subgroup C2      NOp   2
                         Standard orientation:                         
 ---------------------------------------------------------------------
 Center     Atomic      Atomic             Coordinates (Angstroms)
 Number     Number       Type             X           Y           Z
 ---------------------------------------------------------------------
      1          6           0       -0.000000   -0.736685    0.567286
      2          1           0       -0.000176   -1.195882    1.553614
      3          6           0        0.000000    0.736685    0.567286
      4          1           0        0.000176    1.195882    1.553614
      5          6           0       -0.000000    1.538688   -0.505825
      6          1           0        0.000373    1.154713   -1.521478
      7          1           0       -0.000147    2.617871   -0.400902
      8          6           0        0.000000   -1.538688   -0.505825
      9          1           0       -0.000373   -1.154713   -1.521478
     10          1           0        0.000147   -2.617871   -0.400902
 ---------------------------------------------------------------------
 Rotational constants (GHZ):          21.3155471           5.6637558           4.4747655

 **********************************************************************

            Population analysis using the SCF Density.

 **********************************************************************

 Orbital symmetries:
       Occupied  (A) (B) (B) (A) (A) (B) (A) (B) (A) (A) (B) (B)
                 (A) (B) (A)
       Virtual   (B) (A) (A) (B) (B) (A) (B) (A) (A) (B) (A) (A)
                 (B) (B) (A) (B) (A) (B) (A) (A) (B) (B) (B) (A)
                 (A) (B) (B) (A) (A) (B) (A) (B) (B) (A) (A) (B)
                 (A) (B) (A) (B) (A) (A) (B) (B) (B) (A) (B) (A)
                 (B)
 The electronic state is 1-A.
 Alpha  occ. eigenvalues --  -10.27268 -10.27246 -10.26085 -10.26082  -0.89547
 Alpha  occ. eigenvalues --   -0.81842  -0.70374  -0.60793  -0.57129  -0.51786
 Alpha  occ. eigenvalues --   -0.49276  -0.43211  -0.41806  -0.39311  -0.29342
 Alpha virt. eigenvalues --   -0.00308   0.04473   0.05239   0.05723   0.07506
 Alpha virt. eigenvalues --    0.09688   0.09741   0.10185   0.12688   0.13076
 Alpha virt. eigenvalues --    0.13130   0.14255   0.14436   0.18379   0.18662
 Alpha virt. eigenvalues --    0.19690   0.20237   0.23917   0.24264   0.26103
 Alpha virt. eigenvalues --    0.29065   0.30917   0.34465   0.35966   0.38195
 Alpha virt. eigenvalues --    0.47483   0.50795   0.63070   0.70174   0.72110
 Alpha virt. eigenvalues --    0.77015   0.78218   0.79045   0.82282   0.84649
 Alpha virt. eigenvalues --    0.90950   0.93926   1.00163   1.02819   1.06166
 Alpha virt. eigenvalues --    1.08396   1.13120   1.15252   1.16649   1.24384
 Alpha virt. eigenvalues --    1.28386   1.34528   1.34705   1.57134
          Condensed to atoms (all electrons):
               1          2          3          4          5          6
     1  C    5.152727   0.308548   0.222709  -0.009852   0.059124   0.021845
     2  H    0.308548   0.534282  -0.009852  -0.005018  -0.011143   0.000053
     3  C    0.222709  -0.009852   5.152727   0.308548   0.478389  -0.103115
     4  H   -0.009852  -0.005018   0.308548   0.534282   0.013951   0.003764
     5  C    0.059124  -0.011143   0.478389   0.013951   5.124473   0.442980
     6  H    0.021845   0.000053  -0.103115   0.003764   0.442980   0.519570
     7  H    0.012950  -0.000127  -0.034485  -0.005263   0.378024  -0.030565
     8  C    0.478389   0.013951   0.059124  -0.011143  -0.062941  -0.021162
     9  H   -0.103115   0.003764   0.021845   0.000053  -0.021162   0.001914
    10  H   -0.034485  -0.005263   0.012950  -0.000127  -0.000768  -0.000024
               7          8          9         10
     1  C    0.012950   0.478389  -0.103115  -0.034485
     2  H   -0.000127   0.013951   0.003764  -0.005263
     3  C   -0.034485   0.059124   0.021845   0.012950
     4  H   -0.005263  -0.011143   0.000053  -0.000127
     5  C    0.378024  -0.062941  -0.021162  -0.000768
     6  H   -0.030565  -0.021162   0.001914  -0.000024
     7  H    0.506037  -0.000768  -0.000024  -0.000000
     8  C   -0.000768   5.124473   0.442980   0.378024
     9  H   -0.000024   0.442980   0.519570  -0.030565
    10  H   -0.000000   0.378024  -0.030565   0.506037
 Mulliken charges:
               1
     1  C   -0.108839
     2  H    0.170805
     3  C   -0.108839
     4  H    0.170805
     5  C   -0.400927
     6  H    0.164740
     7  H    0.174221
     8  C   -0.400927
     9  H    0.164740
    10  H    0.174221
 Sum of Mulliken charges =  -0.00000
 Mulliken charges with hydrogens summed into heavy atoms:
               1
     1  C    0.061966
     3  C    0.061966
     5  C   -0.061966
     8  C   -0.061966
 Electronic spatial extent (au):  <R**2>=            309.8314
 Charge=              0.0000 electrons
 Dipole moment (field-independent basis, Debye):
    X=             -0.0000    Y=             -0.0000    Z=              0.0746  Tot=              0.0746
 Quadrupole moment (field-independent basis, Debye-Ang):
   XX=            -29.6407   YY=            -23.6569   ZZ=            -23.0457
   XY=              0.0003   XZ=              0.0000   YZ=              0.0000
 Traceless Quadrupole moment (field-independent basis, Debye-Ang):
   XX=             -4.1929   YY=              1.7909   ZZ=              2.4021
   XY=              0.0003   XZ=              0.0000   YZ=              0.0000
 Octapole moment (field-independent basis, Debye-Ang**2):
  XXX=              0.0000  YYY=             -0.0000  ZZZ=              0.4925  XYY=             -0.0000
  XXY=             -0.0000  XXZ=              0.1718  XZZ=             -0.0000  YZZ=             -0.0000
  YYZ=              0.1574  XYZ=             -0.0002
 Hexadecapole moment (field-independent basis, Debye-Ang**3):
 XXXX=            -39.0068 YYYY=           -274.8674 ZZZZ=           -100.5405 XXXY=             -0.0009
 XXXZ=             -0.0000 YYYX=             -0.0064 YYYZ=              0.0000 ZZZX=             -0.0000
 ZZZY=              0.0000 XXYY=            -65.1590 XXZZ=            -25.9758 YYZZ=            -66.7355
 XXYZ=              0.0000 YYXZ=              0.0000 ZZXY=              0.0032
 N-N= 1.045549757460D+02 E-N=-5.696927985934D+02  KE= 1.549390293875D+02
 Symmetry A    KE= 7.867607928196D+01
 Symmetry B    KE= 7.626295010555D+01
 1\1\GINC-GADOLINIO\Scan\RCAM-B3LYP\6-31+G\C4H6\MASTER3\25-Apr-2019\0\\
 # opt=modredundant cam-b3lyp/6-31+g geom=connectivity\\Title Card Requ
 ired\\0,1\C,0.7250403014,0.1304634731,0.6287466838\H,1.177010084,0.211
 6127698,1.6150750553\C,-0.7250403047,-0.1304634724,0.6287466851\H,-1.1
 770100854,-0.2116127701,1.6150750574\C,-1.514367001,-0.27249602,-0.444
 364063\H,-1.1365272837,-0.2041280627,-1.4600169106\H,-2.5764659069,-0.
 4637596291,-0.339440771\C,1.5143669955,0.2724960217,-0.4443640657\H,1.
 1365272762,0.2041280654,-1.4600169126\H,2.5764659017,0.4637596307,-0.3
 394407757\\Version=EM64L-G16RevB.01\State=1-A\HF=-155.8616894,-155.861
 3733,-155.8604461,-155.8589787,-155.8571057,-155.855058,-155.8531867,-
 155.8519051,-155.8514718,-155.8518425,-155.8527762,-155.8539866,-155.8
 552025,-155.8561839,-155.8567603,-155.8568852,-155.8566774,-155.85638,
 -155.8562443\RMSD=6.188e-09,4.015e-09,4.348e-09,7.899e-09,9.017e-09,3.
 959e-09,2.818e-09,2.520e-09,5.605e-09,8.804e-09,6.667e-09,3.743e-09,8.
 632e-09,1.813e-09,9.199e-09,7.531e-09,6.393e-09,1.622e-09,8.996e-09\PG
 =C02 [X(C4H6)]\\@


 SUCCESS IS COUNTED SWEETEST
 BY THOSE WHO NE'ER SUCCEED.
 TO COMPREHEND NECTAR
 REQUIRES SOREST NEED.
           EMILY DICKINSON
 Job cpu time:       0 days  0 hours 18 minutes 13.9 seconds.
 Elapsed time:       0 days  0 hours 25 minutes 20.2 seconds.
 File lengths (MBytes):  RWF=      6 Int=      0 D2E=      0 Chk=      3 Scr=      1
 Normal termination of Gaussian 16 at Thu Apr 25 20:50:11 2019.
