 Entering Gaussian System, Link 0=g16
 Initial command:
 /usr/local/gaussian/gaussian16.b1-legacy/g16/l1.exe "/scratch/master3/Gau-54777.inp" -scrdir="/scratch/master3/"
 Entering Link 1 = /usr/local/gaussian/gaussian16.b1-legacy/g16/l1.exe PID=     54778.
  
 Copyright (c) 1988-2017, Gaussian, Inc.  All Rights Reserved.
  
 This is part of the Gaussian(R) 16 program.  It is based on
 the Gaussian(R) 09 system (copyright 2009, Gaussian, Inc.),
 the Gaussian(R) 03 system (copyright 2003, Gaussian, Inc.),
 the Gaussian(R) 98 system (copyright 1998, Gaussian, Inc.),
 the Gaussian(R) 94 system (copyright 1995, Gaussian, Inc.),
 the Gaussian 92(TM) system (copyright 1992, Gaussian, Inc.),
 the Gaussian 90(TM) system (copyright 1990, Gaussian, Inc.),
 the Gaussian 88(TM) system (copyright 1988, Gaussian, Inc.),
 the Gaussian 86(TM) system (copyright 1986, Carnegie Mellon
 University), and the Gaussian 82(TM) system (copyright 1983,
 Carnegie Mellon University). Gaussian is a federally registered
 trademark of Gaussian, Inc.
  
 This software contains proprietary and confidential information,
 including trade secrets, belonging to Gaussian, Inc.
  
 This software is provided under written license and may be
 used, copied, transmitted, or stored only in accord with that
 written license.
  
 The following legend is applicable only to US Government
 contracts under FAR:
  
                    RESTRICTED RIGHTS LEGEND
  
 Use, reproduction and disclosure by the US Government is
 subject to restrictions as set forth in subparagraphs (a)
 and (c) of the Commercial Computer Software - Restricted
 Rights clause in FAR 52.227-19.
  
 Gaussian, Inc.
 340 Quinnipiac St., Bldg. 40, Wallingford CT 06492
  
  
 ---------------------------------------------------------------
 Warning -- This program may not be used in any manner that
 competes with the business of Gaussian, Inc. or will provide
 assistance to any competitor of Gaussian, Inc.  The licensee
 of this program is prohibited from giving any competitor of
 Gaussian, Inc. access to this program.  By using this program,
 the user acknowledges that Gaussian, Inc. is engaged in the
 business of creating and licensing software in the field of
 computational chemistry and represents and warrants to the
 licensee that it is not a competitor of Gaussian, Inc. and that
 it will not use this program in any manner prohibited above.
 ---------------------------------------------------------------
  

 Cite this work as:
 Gaussian 16, Revision B.01,
 M. J. Frisch, G. W. Trucks, H. B. Schlegel, G. E. Scuseria, 
 M. A. Robb, J. R. Cheeseman, G. Scalmani, V. Barone, 
 G. A. Petersson, H. Nakatsuji, X. Li, M. Caricato, A. V. Marenich, 
 J. Bloino, B. G. Janesko, R. Gomperts, B. Mennucci, H. P. Hratchian, 
 J. V. Ortiz, A. F. Izmaylov, J. L. Sonnenberg, D. Williams-Young, 
 F. Ding, F. Lipparini, F. Egidi, J. Goings, B. Peng, A. Petrone, 
 T. Henderson, D. Ranasinghe, V. G. Zakrzewski, J. Gao, N. Rega, 
 G. Zheng, W. Liang, M. Hada, M. Ehara, K. Toyota, R. Fukuda, 
 J. Hasegawa, M. Ishida, T. Nakajima, Y. Honda, O. Kitao, H. Nakai, 
 T. Vreven, K. Throssell, J. A. Montgomery, Jr., J. E. Peralta, 
 F. Ogliaro, M. J. Bearpark, J. J. Heyd, E. N. Brothers, K. N. Kudin, 
 V. N. Staroverov, T. A. Keith, R. Kobayashi, J. Normand, 
 K. Raghavachari, A. P. Rendell, J. C. Burant, S. S. Iyengar, 
 J. Tomasi, M. Cossi, J. M. Millam, M. Klene, C. Adamo, R. Cammi, 
 J. W. Ochterski, R. L. Martin, K. Morokuma, O. Farkas, 
 J. B. Foresman, and D. J. Fox, Gaussian, Inc., Wallingford CT, 2016.
 
 ******************************************
 Gaussian 16:  EM64L-G16RevB.01 20-Dec-2017
                25-Apr-2019 
 ******************************************
 %chk=butadiene_scan.chk
 -------------------------------------------------
 # opt=modredundant b3lyp/6-31+g geom=connectivity
 -------------------------------------------------
 1/18=120,19=15,26=3,38=1,57=2/1,3;
 2/9=110,12=2,17=6,18=5,40=1/2;
 3/5=1,6=6,7=10,11=2,25=1,30=1,71=1,74=-5/1,2,3;
 4//1;
 5/5=2,38=5/2;
 6/7=2,8=2,9=2,10=2,28=1/1;
 7//1,2,3,16;
 1/18=20,19=15,26=3/3(2);
 2/9=110/2;
 99//99;
 2/9=110/2;
 3/5=1,6=6,7=10,11=2,25=1,30=1,71=1,74=-5/1,2,3;
 4/5=5,16=3,69=1/1;
 5/5=2,38=5/2;
 7//1,2,3,16;
 1/18=20,19=15,26=3/3(-5);
 2/9=110/2;
 6/7=2,8=2,9=2,10=2,19=2,28=1/1;
 99/9=1/99;
 -------------------
 Title Card Required
 -------------------
 Symbolic Z-matrix:
 Charge =  0 Multiplicity = 1
 C                     0.6319    0.44      0. 
 H                     0.53933   1.50599   0. 
 C                    -0.6319   -0.44      0. 
 H                    -0.53933  -1.50599   0. 
 C                    -1.8609    0.13109   0. 
 H                    -1.9598    1.19651   0. 
 H                    -2.73535  -0.48554   0. 
 C                     1.8609   -0.13109   0. 
 H                     1.9598   -1.19651   0. 
 H                     2.73535   0.48554   0. 
 
 The following ModRedundant input section has been read:
 D       8       1       3       5 S  18 10.000                                
 

 GradGradGradGradGradGradGradGradGradGradGradGradGradGradGradGradGradGrad
 Berny optimization.
 Initialization pass.
                           ----------------------------
                           !    Initial Parameters    !
                           ! (Angstroms and Degrees)  !
 --------------------------                            --------------------------
 ! Name  Definition              Value          Derivative Info.                !
 --------------------------------------------------------------------------------
 ! R1    R(1,2)                  1.07           estimate D2E/DX2                !
 ! R2    R(1,3)                  1.54           estimate D2E/DX2                !
 ! R3    R(1,8)                  1.3552         estimate D2E/DX2                !
 ! R4    R(3,4)                  1.07           estimate D2E/DX2                !
 ! R5    R(3,5)                  1.3552         estimate D2E/DX2                !
 ! R6    R(5,6)                  1.07           estimate D2E/DX2                !
 ! R7    R(5,7)                  1.07           estimate D2E/DX2                !
 ! R8    R(8,9)                  1.07           estimate D2E/DX2                !
 ! R9    R(8,10)                 1.07           estimate D2E/DX2                !
 ! A1    A(2,1,3)              119.8865         estimate D2E/DX2                !
 ! A2    A(2,1,8)              119.8865         estimate D2E/DX2                !
 ! A3    A(3,1,8)              120.2269         estimate D2E/DX2                !
 ! A4    A(1,3,4)              119.8865         estimate D2E/DX2                !
 ! A5    A(1,3,5)              120.2269         estimate D2E/DX2                !
 ! A6    A(4,3,5)              119.8865         estimate D2E/DX2                !
 ! A7    A(3,5,6)              120.2269         estimate D2E/DX2                !
 ! A8    A(3,5,7)              119.8865         estimate D2E/DX2                !
 ! A9    A(6,5,7)              119.8865         estimate D2E/DX2                !
 ! A10   A(1,8,9)              120.2269         estimate D2E/DX2                !
 ! A11   A(1,8,10)             119.8865         estimate D2E/DX2                !
 ! A12   A(9,8,10)             119.8865         estimate D2E/DX2                !
 ! D1    D(2,1,3,4)            180.0            estimate D2E/DX2                !
 ! D2    D(2,1,3,5)              0.0            estimate D2E/DX2                !
 ! D3    D(8,1,3,4)              0.0            estimate D2E/DX2                !
 ! D4    D(8,1,3,5)            180.0            Scan                            !
 ! D5    D(2,1,8,9)            180.0            estimate D2E/DX2                !
 ! D6    D(2,1,8,10)             0.0            estimate D2E/DX2                !
 ! D7    D(3,1,8,9)              0.0            estimate D2E/DX2                !
 ! D8    D(3,1,8,10)           180.0            estimate D2E/DX2                !
 ! D9    D(1,3,5,6)              0.0            estimate D2E/DX2                !
 ! D10   D(1,3,5,7)            180.0            estimate D2E/DX2                !
 ! D11   D(4,3,5,6)            180.0            estimate D2E/DX2                !
 ! D12   D(4,3,5,7)              0.0            estimate D2E/DX2                !
 --------------------------------------------------------------------------------
 Trust Radius=3.00D-01 FncErr=1.00D-07 GrdErr=1.00D-06 EigMax=2.50D+02 EigMin=1.00D-04
 Number of optimizations in scan=  19
 Number of steps in this run=     43 maximum allowed number of steps=    100.
 GradGradGradGradGradGradGradGradGradGradGradGradGradGradGradGradGradGrad

                          Input orientation:                          
 ---------------------------------------------------------------------
 Center     Atomic      Atomic             Coordinates (Angstroms)
 Number     Number       Type             X           Y           Z
 ---------------------------------------------------------------------
      1          6           0        0.631903    0.439999    0.000000
      2          1           0        0.539330    1.505986    0.000000
      3          6           0       -0.631903   -0.439999    0.000000
      4          1           0       -0.539330   -1.505986    0.000000
      5          6           0       -1.860897    0.131089    0.000000
      6          1           0       -1.959802    1.196508    0.000000
      7          1           0       -2.735348   -0.485544    0.000000
      8          6           0        1.860897   -0.131089    0.000000
      9          1           0        1.959802   -1.196508    0.000000
     10          1           0        2.735348    0.485544    0.000000
 ---------------------------------------------------------------------
                    Distance matrix (angstroms):
                    1          2          3          4          5
     1  C    0.000000
     2  H    1.070000   0.000000
     3  C    1.540000   2.271265   0.000000
     4  H    2.271265   3.199295   1.070000   0.000000
     5  C    2.511867   2.766123   1.355200   2.103938   0.000000
     6  H    2.699859   2.518221   2.107479   3.053066   1.070000
     7  H    3.492135   3.832716   2.103938   2.421527   1.070000
     8  C    1.355200   2.103938   2.511867   2.766123   3.731017
     9  H    2.107479   3.053066   2.699859   2.518221   4.044781
    10  H    2.103938   2.421527   3.492135   3.832716   4.609892
                    6          7          8          9         10
     6  H    0.000000
     7  H    1.852234   0.000000
     8  C    4.044781   4.609892   0.000000
     9  H    4.592365   4.748673   1.070000   0.000000
    10  H    4.748673   5.556214   1.070000   1.852234   0.000000
 Stoichiometry    C4H6
 Framework group  C2H[SGH(C4H6)]
 Deg. of freedom     9
 Full point group                 C2H     NOp   4
 Largest Abelian subgroup         C2H     NOp   4
 Largest concise Abelian subgroup C2      NOp   2
                         Standard orientation:                         
 ---------------------------------------------------------------------
 Center     Atomic      Atomic             Coordinates (Angstroms)
 Number     Number       Type             X           Y           Z
 ---------------------------------------------------------------------
      1          6           0       -0.358947    0.681217    0.000000
      2          1           0       -1.428228    0.720443    0.000000
      3          6           0        0.358947   -0.681217    0.000000
      4          1           0        1.428228   -0.720443    0.000000
      5          6           0       -0.358947   -1.830650    0.000000
      6          1           0       -1.428442   -1.797778    0.000000
      7          1           0        0.145465   -2.774296    0.000000
      8          6           0        0.358947    1.830650    0.000000
      9          1           0        1.428442    1.797778    0.000000
     10          1           0       -0.145465    2.774296    0.000000
 ---------------------------------------------------------------------
 Rotational constants (GHZ):          38.9066132           4.3527853           3.9148055
 Standard basis: 6-31+G (6D, 7F)
 There are    26 symmetry adapted cartesian basis functions of AG  symmetry.
 There are     6 symmetry adapted cartesian basis functions of BG  symmetry.
 There are     6 symmetry adapted cartesian basis functions of AU  symmetry.
 There are    26 symmetry adapted cartesian basis functions of BU  symmetry.
 There are    26 symmetry adapted basis functions of AG  symmetry.
 There are     6 symmetry adapted basis functions of BG  symmetry.
 There are     6 symmetry adapted basis functions of AU  symmetry.
 There are    26 symmetry adapted basis functions of BU  symmetry.
    64 basis functions,   128 primitive gaussians,    64 cartesian basis functions
    15 alpha electrons       15 beta electrons
       nuclear repulsion energy       102.4724596192 Hartrees.
 NAtoms=   10 NActive=   10 NUniq=    5 SFac= 4.00D+00 NAtFMM=   60 NAOKFM=F Big=F
 Integral buffers will be    131072 words long.
 Raffenetti 2 integral format.
 Two-electron integral symmetry is turned on.
 One-electron integrals computed using PRISM.
 NBasis=    64 RedAO= T EigKep=  3.38D-05  NBF=    26     6     6    26
 NBsUse=    64 1.00D-06 EigRej= -1.00D+00 NBFU=    26     6     6    26
 ExpMin= 4.38D-02 ExpMax= 3.05D+03 ExpMxC= 4.57D+02 IAcc=3 IRadAn=         5 AccDes= 0.00D+00
 Harris functional with IExCor=  402 and IRadAn=       5 diagonalized for initial guess.
 HarFok:  IExCor=  402 AccDes= 0.00D+00 IRadAn=         5 IDoV= 1 UseB2=F ITyADJ=14
 ICtDFT=  3500011 ScaDFX=  1.000000  1.000000  1.000000  1.000000
 FoFCou: FMM=F IPFlag=           0 FMFlag=      100000 FMFlg1=           0
         NFxFlg=           0 DoJE=T BraDBF=F KetDBF=T FulRan=T
         wScrn=  0.000000 ICntrl=       500 IOpCl=  0 I1Cent=   200000004 NGrid=           0
         NMat0=    1 NMatS0=      1 NMatT0=    0 NMatD0=    1 NMtDS0=    0 NMtDT0=    0
 Petite list used in FoFCou.
 Initial guess orbital symmetries:
       Occupied  (BU) (AG) (AG) (BU) (AG) (BU) (AG) (BU) (AG) (BU)
                 (AG) (BU) (AG) (AU) (BG)
       Virtual   (AU) (BG) (AG) (BU) (BU) (AG) (BU) (AG) (AU) (AG)
                 (BG) (BU) (BG) (BU) (AG) (AU) (AG) (BU) (BU) (BU)
                 (AG) (BU) (AG) (AG) (BU) (AG) (BU) (BU) (AU) (AG)
                 (BG) (BU) (AG) (BG) (AU) (BU) (AG) (BU) (AG) (AG)
                 (BU) (AG) (BU) (BU) (AG) (AG) (BU) (AG) (BU)
 The electronic state of the initial guess is 1-AG.
 Keep R1 ints in memory in symmetry-blocked form, NReq=3060191.
 Requested convergence on RMS density matrix=1.00D-08 within 128 cycles.
 Requested convergence on MAX density matrix=1.00D-06.
 Requested convergence on             energy=1.00D-06.
 No special actions if energy rises.
 SCF Done:  E(RB3LYP) =  -155.961876244     A.U. after    9 cycles
            NFock=  9  Conv=0.88D-08     -V/T= 2.0065

 **********************************************************************

            Population analysis using the SCF Density.

 **********************************************************************

 Orbital symmetries:
       Occupied  (AG) (BU) (BU) (AG) (AG) (BU) (AG) (BU) (AG) (BU)
                 (BU) (AG) (AG) (AU) (BG)
       Virtual   (AU) (AG) (BU) (BG) (BU) (AG) (AG) (AU) (BU) (BG)
                 (AG) (BU) (BG) (AU) (BU) (AG) (AG) (BU) (BU) (BU)
                 (AG) (BU) (AG) (AG) (AG) (BU) (BU) (BU) (AG) (AU)
                 (BG) (BU) (BG) (AU) (AG) (BU) (AG) (BU) (AG) (AG)
                 (BU) (AG) (BU) (BU) (AG) (AG) (BU) (AG) (BU)
 The electronic state is 1-AG.
 Alpha  occ. eigenvalues --  -10.20538 -10.20524 -10.18658 -10.18657  -0.80611
 Alpha  occ. eigenvalues --   -0.74444  -0.60557  -0.56838  -0.47746  -0.47057
 Alpha  occ. eigenvalues --   -0.40230  -0.40116  -0.35584  -0.32302  -0.24122
 Alpha virt. eigenvalues --   -0.03585   0.01699   0.02450   0.02781   0.02804
 Alpha virt. eigenvalues --    0.05410   0.06436   0.06603   0.08281   0.09901
 Alpha virt. eigenvalues --    0.10051   0.10533   0.13425   0.14455   0.15047
 Alpha virt. eigenvalues --    0.15454   0.17969   0.20698   0.21406   0.23422
 Alpha virt. eigenvalues --    0.23603   0.25692   0.25777   0.31370   0.37444
 Alpha virt. eigenvalues --    0.37792   0.39642   0.60743   0.66422   0.67284
 Alpha virt. eigenvalues --    0.69037   0.72102   0.73787   0.75377   0.78468
 Alpha virt. eigenvalues --    0.81099   0.86943   0.95675   0.95797   1.02684
 Alpha virt. eigenvalues --    1.03223   1.06947   1.07707   1.12496   1.14696
 Alpha virt. eigenvalues --    1.20270   1.23777   1.34438   1.40840
          Condensed to atoms (all electrons):
               1          2          3          4          5          6
     1  C    5.643589   0.301176  -0.048421   0.008406   0.235910   0.020197
     2  H    0.301176   0.536175   0.008406   0.002523  -0.032591   0.001657
     3  C   -0.048421   0.008406   5.643589   0.301176   0.068913  -0.134394
     4  H    0.008406   0.002523   0.301176   0.536175   0.017411   0.004076
     5  C    0.235910  -0.032591   0.068913   0.017411   5.457398   0.462262
     6  H    0.020197   0.001657  -0.134394   0.004076   0.462262   0.519562
     7  H    0.017627   0.000148  -0.074855  -0.004908   0.408643  -0.031406
     8  C    0.068913   0.017411   0.235910  -0.032591  -0.141447  -0.010100
     9  H   -0.134394   0.004076   0.020197   0.001657  -0.010100  -0.000001
    10  H   -0.074855  -0.004908   0.017627   0.000148  -0.003718  -0.000001
               7          8          9         10
     1  C    0.017627   0.068913  -0.134394  -0.074855
     2  H    0.000148   0.017411   0.004076  -0.004908
     3  C   -0.074855   0.235910   0.020197   0.017627
     4  H   -0.004908  -0.032591   0.001657   0.000148
     5  C    0.408643  -0.141447  -0.010100  -0.003718
     6  H   -0.031406  -0.010100  -0.000001  -0.000001
     7  H    0.521714  -0.003718  -0.000001   0.000002
     8  C   -0.003718   5.457398   0.462262   0.408643
     9  H   -0.000001   0.462262   0.519562  -0.031406
    10  H    0.000002   0.408643  -0.031406   0.521714
 Mulliken charges:
               1
     1  C   -0.038148
     2  H    0.165928
     3  C   -0.038148
     4  H    0.165928
     5  C   -0.462681
     6  H    0.168148
     7  H    0.166753
     8  C   -0.462681
     9  H    0.168148
    10  H    0.166753
 Sum of Mulliken charges =   0.00000
 Mulliken charges with hydrogens summed into heavy atoms:
               1
     1  C    0.127779
     3  C    0.127779
     5  C   -0.127779
     8  C   -0.127779
 Electronic spatial extent (au):  <R**2>=            342.5948
 Charge=              0.0000 electrons
 Dipole moment (field-independent basis, Debye):
    X=              0.0000    Y=             -0.0000    Z=              0.0000  Tot=              0.0000
 Quadrupole moment (field-independent basis, Debye-Ang):
   XX=            -22.8747   YY=            -24.0224   ZZ=            -29.7700
   XY=             -0.3386   XZ=              0.0000   YZ=              0.0000
 Traceless Quadrupole moment (field-independent basis, Debye-Ang):
   XX=              2.6810   YY=              1.5333   ZZ=             -4.2143
   XY=             -0.3386   XZ=              0.0000   YZ=              0.0000
 Octapole moment (field-independent basis, Debye-Ang**2):
  XXX=              0.0000  YYY=             -0.0000  ZZZ=              0.0000  XYY=             -0.0000
  XXY=             -0.0000  XXZ=              0.0000  XZZ=             -0.0000  YZZ=             -0.0000
  YYZ=              0.0000  XYZ=              0.0000
 Hexadecapole moment (field-independent basis, Debye-Ang**3):
 XXXX=            -72.4490 YYYY=           -352.2834 ZZZZ=            -39.9894 XXXY=            -16.8388
 XXXZ=              0.0000 YYYX=            -24.0157 YYYZ=              0.0000 ZZZX=              0.0000
 ZZZY=              0.0000 XXYY=            -72.3956 XXZZ=            -20.9533 YYZZ=            -79.6497
 XXYZ=              0.0000 YYXZ=              0.0000 ZZXY=             -7.0350
 N-N= 1.024724596192D+02 E-N=-5.655756997603D+02  KE= 1.549544688095D+02
 Symmetry AG   KE= 7.692094162672D+01
 Symmetry BG   KE= 2.184190574514D+00
 Symmetry AU   KE= 1.931444726934D+00
 Symmetry BU   KE= 7.391789188129D+01
 Calling FoFJK, ICntrl=      2127 FMM=F ISym2X=1 I1Cent= 0 IOpClX= 0 NMat=1 NMatS=1 NMatT=0.
 ***** Axes restored to original set *****
 -------------------------------------------------------------------
 Center     Atomic                   Forces (Hartrees/Bohr)
 Number     Number              X              Y              Z
 -------------------------------------------------------------------
      1        6          -0.012972387   -0.054623941   -0.000000000
      2        1          -0.007323681    0.011672697   -0.000000000
      3        6           0.012972387    0.054623941   -0.000000000
      4        1           0.007323681   -0.011672697   -0.000000000
      5        6           0.020577618   -0.015516887   -0.000000000
      6        1          -0.005311625    0.011080584   -0.000000000
      7        1          -0.012036966   -0.002380584   -0.000000000
      8        6          -0.020577618    0.015516887   -0.000000000
      9        1           0.005311625   -0.011080584   -0.000000000
     10        1           0.012036966    0.002380584   -0.000000000
 -------------------------------------------------------------------
 Cartesian Forces:  Max     0.054623941 RMS     0.016946399

 GradGradGradGradGradGradGradGradGradGradGradGradGradGradGradGradGradGrad
 Berny optimization.
 FormGI is forming the generalized inverse of G from B-inverse, IUseBI=4.
 Internal  Forces:  Max     0.039954138 RMS     0.009782059
 Search for a local minimum.
 Step number   1 out of a maximum of   43 on scan point     1 out of    19
 All quantities printed in internal units (Hartrees-Bohrs-Radians)
 Mixed Optimization -- RFO/linear search
 Second derivative matrix not updated -- first step.
 ITU=  0
     Eigenvalues ---    0.00848   0.01459   0.02681   0.02681   0.02681
     Eigenvalues ---    0.02681   0.16000   0.16000   0.16000   0.16000
     Eigenvalues ---    0.16000   0.16000   0.22000   0.22000   0.28519
     Eigenvalues ---    0.37230   0.37230   0.37230   0.37230   0.37230
     Eigenvalues ---    0.37230   0.53930   0.539301000.000001000.00000
     Eigenvalues --- 1000.000001000.000001000.000001000.000001000.00000
     Eigenvalues --- 1000.000001000.000001000.00000
 RFO step:  Lambda=-1.09994603D-02 EMin= 8.47961735D-03
 Linear search not attempted -- first point.
 Iteration  1 RMS(Cart)=  0.03830100 RMS(Int)=  0.00066837
 Iteration  2 RMS(Cart)=  0.00110774 RMS(Int)=  0.00000029
 Iteration  3 RMS(Cart)=  0.00000032 RMS(Int)=  0.00000000
 Iteration  1 RMS(Cart)=  0.00000000 RMS(Int)=  0.00000000
 ClnCor:  largest displacement from symmetrization is 6.86D-12 for atom     5.
 Variable       Old X    -DE/DX   Delta X   Delta X   Delta X     New X
                                 (Linear)    (Quad)   (Total)
    R1        2.02201   0.01226   0.00000   0.03199   0.03199   2.05400
    R2        2.91018  -0.03995   0.00000  -0.13489  -0.13489   2.77528
    R3        2.56096  -0.00580   0.00000  -0.01054  -0.01054   2.55042
    R4        2.02201   0.01226   0.00000   0.03199   0.03199   2.05400
    R5        2.56096  -0.00580   0.00000  -0.01054  -0.01054   2.55042
    R6        2.02201   0.01152   0.00000   0.03007   0.03007   2.05207
    R7        2.02201   0.01121   0.00000   0.02924   0.02924   2.05125
    R8        2.02201   0.01152   0.00000   0.03007   0.03007   2.05207
    R9        2.02201   0.01121   0.00000   0.02924   0.02924   2.05125
    A1        2.09241  -0.01210   0.00000  -0.06203  -0.06203   2.03038
    A2        2.09241   0.00061   0.00000   0.01230   0.01230   2.10471
    A3        2.09836   0.01149   0.00000   0.04973   0.04973   2.14809
    A4        2.09241  -0.01210   0.00000  -0.06203  -0.06203   2.03038
    A5        2.09836   0.01149   0.00000   0.04973   0.04973   2.14809
    A6        2.09241   0.00061   0.00000   0.01230   0.01230   2.10471
    A7        2.09836   0.00238   0.00000   0.01394   0.01394   2.11230
    A8        2.09241   0.00385   0.00000   0.02254   0.02254   2.11495
    A9        2.09241  -0.00624   0.00000  -0.03648  -0.03648   2.05593
   A10        2.09836   0.00238   0.00000   0.01394   0.01394   2.11230
   A11        2.09241   0.00385   0.00000   0.02254   0.02254   2.11495
   A12        2.09241  -0.00624   0.00000  -0.03648  -0.03648   2.05593
    D1        3.14159  -0.00000   0.00000  -0.00000   0.00000   3.14159
    D2        0.00000  -0.00000   0.00000  -0.00000   0.00000   0.00000
    D3        0.00000  -0.00000   0.00000  -0.00000   0.00000   0.00000
    D4        3.14159  -0.00000   0.00000   0.00000   0.00000   3.14159
    D5        3.14159   0.00000   0.00000  -0.00000   0.00000   3.14159
    D6        0.00000   0.00000   0.00000  -0.00000   0.00000   0.00000
    D7        0.00000   0.00000   0.00000  -0.00000   0.00000   0.00000
    D8        3.14159  -0.00000   0.00000  -0.00000   0.00000   3.14159
    D9        0.00000   0.00000   0.00000   0.00000   0.00000   0.00000
   D10        3.14159  -0.00000   0.00000  -0.00000   0.00000   3.14159
   D11        3.14159   0.00000   0.00000   0.00000   0.00000   3.14159
   D12        0.00000   0.00000   0.00000   0.00000   0.00000   0.00000
         Item               Value     Threshold  Converged?
 Maximum Force            0.039954     0.000450     NO 
 RMS     Force            0.009934     0.000300     NO 
 Maximum Displacement     0.101214     0.001800     NO 
 RMS     Displacement     0.038471     0.001200     NO 
 Predicted change in Energy=-5.725201D-03
 GradGradGradGradGradGradGradGradGradGradGradGradGradGradGradGradGradGrad

                          Input orientation:                          
 ---------------------------------------------------------------------
 Center     Atomic      Atomic             Coordinates (Angstroms)
 Number     Number       Type             X           Y           Z
 ---------------------------------------------------------------------
      1          6           0        0.614796    0.401541    0.000000
      2          1           0        0.485770    1.480785    0.000000
      3          6           0       -0.614796   -0.401541    0.000000
      4          1           0       -0.485770   -1.480785    0.000000
      5          6           0       -1.849895    0.142527    0.000000
      6          1           0       -1.986976    1.219750    0.000000
      7          1           0       -2.738538   -0.480826    0.000000
      8          6           0        1.849895   -0.142527    0.000000
      9          1           0        1.986976   -1.219750    0.000000
     10          1           0        2.738538    0.480826    0.000000
 ---------------------------------------------------------------------
                    Distance matrix (angstroms):
                    1          2          3          4          5
     1  C    0.000000
     2  H    1.086929   0.000000
     3  C    1.468617   2.180458   0.000000
     4  H    2.180458   3.116855   1.086929   0.000000
     5  C    2.478263   2.691888   1.349622   2.120372   0.000000
     6  H    2.727395   2.486486   2.124020   3.089743   1.085910
     7  H    3.467480   3.774133   2.125221   2.464727   1.085475
     8  C    1.349622   2.120372   2.478263   2.691888   3.710754
     9  H    2.124020   3.089743   2.727395   2.486486   4.071532
    10  H    2.125221   2.464727   3.467480   3.774133   4.600886
                    6          7          8          9         10
     6  H    0.000000
     7  H    1.859248   0.000000
     8  C    4.071532   4.600886   0.000000
     9  H    4.662988   4.782937   1.085910   0.000000
    10  H    4.782937   5.560857   1.085475   1.859248   0.000000
 Stoichiometry    C4H6
 Framework group  C2H[SGH(C4H6)]
 Deg. of freedom     9
 Full point group                 C2H     NOp   4
 Largest Abelian subgroup         C2H     NOp   4
 Largest concise Abelian subgroup C2      NOp   2
                         Standard orientation:                         
 ---------------------------------------------------------------------
 Center     Atomic      Atomic             Coordinates (Angstroms)
 Number     Number       Type             X           Y           Z
 ---------------------------------------------------------------------
      1          6           0       -0.335087    0.653396    0.000000
      2          1           0       -1.421905    0.637873    0.000000
      3          6           0        0.335087   -0.653396    0.000000
      4          1           0        1.421905   -0.637873    0.000000
      5          6           0       -0.335087   -1.824867    0.000000
      6          1           0       -1.420737   -1.848613    0.000000
      7          1           0        0.191977   -2.773793    0.000000
      8          6           0        0.335087    1.824867    0.000000
      9          1           0        1.420737    1.848613    0.000000
     10          1           0       -0.191977    2.773793    0.000000
 ---------------------------------------------------------------------
 Rotational constants (GHZ):          41.3292015           4.4035677           3.9795521
 Standard basis: 6-31+G (6D, 7F)
 There are    26 symmetry adapted cartesian basis functions of AG  symmetry.
 There are     6 symmetry adapted cartesian basis functions of BG  symmetry.
 There are     6 symmetry adapted cartesian basis functions of AU  symmetry.
 There are    26 symmetry adapted cartesian basis functions of BU  symmetry.
 There are    26 symmetry adapted basis functions of AG  symmetry.
 There are     6 symmetry adapted basis functions of BG  symmetry.
 There are     6 symmetry adapted basis functions of AU  symmetry.
 There are    26 symmetry adapted basis functions of BU  symmetry.
    64 basis functions,   128 primitive gaussians,    64 cartesian basis functions
    15 alpha electrons       15 beta electrons
       nuclear repulsion energy       103.2403915635 Hartrees.
 NAtoms=   10 NActive=   10 NUniq=    5 SFac= 4.00D+00 NAtFMM=   60 NAOKFM=F Big=F
 Integral buffers will be    131072 words long.
 Raffenetti 2 integral format.
 Two-electron integral symmetry is turned on.
 One-electron integrals computed using PRISM.
 NBasis=    64 RedAO= T EigKep=  2.97D-05  NBF=    26     6     6    26
 NBsUse=    64 1.00D-06 EigRej= -1.00D+00 NBFU=    26     6     6    26
 Initial guess from the checkpoint file:  "butadiene_scan.chk"
 B after Tr=     0.000000    0.000000    0.000000
         Rot=    0.999977   -0.000000   -0.000000   -0.006809 Ang=  -0.78 deg.
 Initial guess orbital symmetries:
       Occupied  (AG) (BU) (BU) (AG) (AG) (BU) (AG) (BU) (AG) (BU)
                 (BU) (AG) (AG) (AU) (BG)
       Virtual   (AU) (AG) (BU) (BG) (BU) (AG) (AG) (AU) (BU) (BG)
                 (AG) (BU) (BG) (AU) (BU) (AG) (AG) (BU) (BU) (BU)
                 (AG) (BU) (AG) (AG) (AG) (BU) (BU) (BU) (AG) (AU)
                 (BG) (BU) (BG) (AU) (AG) (BU) (AG) (BU) (AG) (AG)
                 (BU) (AG) (BU) (BU) (AG) (AG) (BU) (AG) (BU)
 ExpMin= 4.38D-02 ExpMax= 3.05D+03 ExpMxC= 4.57D+02 IAcc=3 IRadAn=         5 AccDes= 0.00D+00
 Harris functional with IExCor=  402 and IRadAn=       5 diagonalized for initial guess.
 HarFok:  IExCor=  402 AccDes= 0.00D+00 IRadAn=         5 IDoV= 1 UseB2=F ITyADJ=14
 ICtDFT=  3500011 ScaDFX=  1.000000  1.000000  1.000000  1.000000
 FoFCou: FMM=F IPFlag=           0 FMFlag=      100000 FMFlg1=           0
         NFxFlg=           0 DoJE=T BraDBF=F KetDBF=T FulRan=T
         wScrn=  0.000000 ICntrl=       500 IOpCl=  0 I1Cent=   200000004 NGrid=           0
         NMat0=    1 NMatS0=      1 NMatT0=    0 NMatD0=    1 NMtDS0=    0 NMtDT0=    0
 Petite list used in FoFCou.
 Keep R1 ints in memory in symmetry-blocked form, NReq=3060191.
 Requested convergence on RMS density matrix=1.00D-08 within 128 cycles.
 Requested convergence on MAX density matrix=1.00D-06.
 Requested convergence on             energy=1.00D-06.
 No special actions if energy rises.
 SCF Done:  E(RB3LYP) =  -155.968215825     A.U. after    9 cycles
            NFock=  9  Conv=0.36D-08     -V/T= 2.0065
 Calling FoFJK, ICntrl=      2127 FMM=F ISym2X=1 I1Cent= 0 IOpClX= 0 NMat=1 NMatS=1 NMatT=0.
 ***** Axes restored to original set *****
 -------------------------------------------------------------------
 Center     Atomic                   Forces (Hartrees/Bohr)
 Number     Number              X              Y              Z
 -------------------------------------------------------------------
      1        6          -0.001391363   -0.009963759   -0.000000000
      2        1           0.000663908    0.001901667   -0.000000000
      3        6           0.001391363    0.009963759   -0.000000000
      4        1          -0.000663908   -0.001901667   -0.000000000
      5        6           0.002413803   -0.005591414   -0.000000000
      6        1          -0.001704268    0.000658943   -0.000000000
      7        1          -0.000962722    0.001708230   -0.000000000
      8        6          -0.002413803    0.005591414   -0.000000000
      9        1           0.001704268   -0.000658943   -0.000000000
     10        1           0.000962722   -0.001708230   -0.000000000
 -------------------------------------------------------------------
 Cartesian Forces:  Max     0.009963759 RMS     0.003157462

 GradGradGradGradGradGradGradGradGradGradGradGradGradGradGradGradGradGrad
 Berny optimization.
 Using GEDIIS/GDIIS optimizer.
 FormGI is forming the generalized inverse of G from B-inverse, IUseBI=4.
 Internal  Forces:  Max     0.004113687 RMS     0.001669797
 Search for a local minimum.
 Step number   2 out of a maximum of   43 on scan point     1 out of    19
 All quantities printed in internal units (Hartrees-Bohrs-Radians)
 Mixed Optimization -- RFO/linear search
 Update second derivatives using D2CorX and points    1    2
 DE= -6.34D-03 DEPred=-5.73D-03 R= 1.11D+00
 TightC=F SS=  1.41D+00  RLast= 2.02D-01 DXNew= 5.0454D-01 6.0743D-01
 Trust test= 1.11D+00 RLast= 2.02D-01 DXMaxT set to 5.05D-01
 ITU=  1  0
 Use linear search instead of GDIIS.
     Eigenvalues ---    0.00886   0.01508   0.02681   0.02681   0.02681
     Eigenvalues ---    0.02681   0.15026   0.16000   0.16000   0.16000
     Eigenvalues ---    0.16000   0.16682   0.20023   0.22000   0.29174
     Eigenvalues ---    0.36826   0.37230   0.37230   0.37230   0.37230
     Eigenvalues ---    0.37894   0.53802   0.539301000.000001000.00000
     Eigenvalues --- 1000.000001000.000001000.000001000.000001000.00000
     Eigenvalues --- 1000.000001000.000001000.00000
 RFO step:  Lambda=-3.16484072D-04 EMin= 8.85662480D-03
 Quartic linear search produced a step of  0.12385.
 Iteration  1 RMS(Cart)=  0.01316385 RMS(Int)=  0.00007848
 Iteration  2 RMS(Cart)=  0.00011721 RMS(Int)=  0.00000000
 Iteration  3 RMS(Cart)=  0.00000000 RMS(Int)=  0.00000000
 Iteration  1 RMS(Cart)=  0.00000000 RMS(Int)=  0.00000000
 ClnCor:  largest displacement from symmetrization is 4.14D-12 for atom     8.
 Variable       Old X    -DE/DX   Delta X   Delta X   Delta X     New X
                                 (Linear)    (Quad)   (Total)
    R1        2.05400   0.00181   0.00396   0.00200   0.00597   2.05996
    R2        2.77528  -0.00304  -0.01671   0.00312  -0.01359   2.76170
    R3        2.55042  -0.00107  -0.00131  -0.00113  -0.00243   2.54798
    R4        2.05400   0.00181   0.00396   0.00200   0.00597   2.05996
    R5        2.55042  -0.00107  -0.00131  -0.00113  -0.00243   2.54798
    R6        2.05207   0.00087   0.00372  -0.00062   0.00310   2.05517
    R7        2.05125  -0.00019   0.00362  -0.00374  -0.00012   2.05113
    R8        2.05207   0.00087   0.00372  -0.00062   0.00310   2.05517
    R9        2.05125  -0.00019   0.00362  -0.00374  -0.00012   2.05113
    A1        2.03038  -0.00115  -0.00768   0.00344  -0.00424   2.02614
    A2        2.10471  -0.00297   0.00152  -0.01861  -0.01709   2.08763
    A3        2.14809   0.00411   0.00616   0.01517   0.02133   2.16942
    A4        2.03038  -0.00115  -0.00768   0.00344  -0.00424   2.02614
    A5        2.14809   0.00411   0.00616   0.01517   0.02133   2.16942
    A6        2.10471  -0.00297   0.00152  -0.01861  -0.01709   2.08763
    A7        2.11230   0.00086   0.00173   0.00431   0.00604   2.11834
    A8        2.11495   0.00157   0.00279   0.00818   0.01097   2.12592
    A9        2.05593  -0.00243  -0.00452  -0.01249  -0.01701   2.03892
   A10        2.11230   0.00086   0.00173   0.00431   0.00604   2.11834
   A11        2.11495   0.00157   0.00279   0.00818   0.01097   2.12592
   A12        2.05593  -0.00243  -0.00452  -0.01249  -0.01701   2.03892
    D1        3.14159   0.00000   0.00000   0.00000   0.00000   3.14159
    D2        0.00000   0.00000   0.00000   0.00000   0.00000   0.00000
    D3        0.00000   0.00000   0.00000   0.00000   0.00000   0.00000
    D4        3.14159   0.00000   0.00000   0.00000   0.00000   3.14159
    D5        3.14159  -0.00000   0.00000   0.00000   0.00000   3.14159
    D6        0.00000  -0.00000   0.00000   0.00000   0.00000   0.00000
    D7        0.00000  -0.00000   0.00000   0.00000   0.00000   0.00000
    D8        3.14159   0.00000   0.00000   0.00000   0.00000   3.14159
    D9        0.00000  -0.00000   0.00000  -0.00000   0.00000   0.00000
   D10        3.14159   0.00000   0.00000   0.00000   0.00000   3.14159
   D11        3.14159  -0.00000   0.00000  -0.00000   0.00000   3.14159
   D12        0.00000  -0.00000   0.00000  -0.00000   0.00000   0.00000
         Item               Value     Threshold  Converged?
 Maximum Force            0.004114     0.000450     NO 
 RMS     Force            0.001696     0.000300     NO 
 Maximum Displacement     0.040305     0.001800     NO 
 RMS     Displacement     0.013097     0.001200     NO 
 Predicted change in Energy=-2.557806D-04
 GradGradGradGradGradGradGradGradGradGradGradGradGradGradGradGradGradGrad

                          Input orientation:                          
 ---------------------------------------------------------------------
 Center     Atomic      Atomic             Coordinates (Angstroms)
 Number     Number       Type             X           Y           Z
 ---------------------------------------------------------------------
      1          6           0        0.616865    0.391690    0.000000
      2          1           0        0.496773    1.475141    0.000000
      3          6           0       -0.616865   -0.391690    0.000000
      4          1           0       -0.496773   -1.475141    0.000000
      5          6           0       -1.855355    0.141364    0.000000
      6          1           0       -2.008305    1.218105    0.000000
      7          1           0       -2.745490   -0.479748    0.000000
      8          6           0        1.855355   -0.141364    0.000000
      9          1           0        2.008305   -1.218105    0.000000
     10          1           0        2.745490    0.479748    0.000000
 ---------------------------------------------------------------------
                    Distance matrix (angstroms):
                    1          2          3          4          5
     1  C    0.000000
     2  H    1.090086   0.000000
     3  C    1.461428   2.173763   0.000000
     4  H    2.173763   3.113084   1.090086   0.000000
     5  C    2.484861   2.703972   1.348334   2.111595   0.000000
     6  H    2.752177   2.518230   2.127802   3.088414   1.087550
     7  H    3.473447   3.786009   2.130446   2.459174   1.085413
     8  C    1.348334   2.111595   2.484861   2.703972   3.721465
     9  H    2.127802   3.088414   2.752177   2.518230   4.095854
    10  H    2.130446   2.459174   3.473447   3.786009   4.613272
                    6          7          8          9         10
     6  H    0.000000
     7  H    1.850986   0.000000
     8  C    4.095854   4.613272   0.000000
     9  H    4.697688   4.810794   1.087550   0.000000
    10  H    4.810794   5.574181   1.085413   1.850986   0.000000
 Stoichiometry    C4H6
 Framework group  C2H[SGH(C4H6)]
 Deg. of freedom     9
 Full point group                 C2H     NOp   4
 Largest Abelian subgroup         C2H     NOp   4
 Largest concise Abelian subgroup C2      NOp   2
                         Standard orientation:                         
 ---------------------------------------------------------------------
 Center     Atomic      Atomic             Coordinates (Angstroms)
 Number     Number       Type             X           Y           Z
 ---------------------------------------------------------------------
      1          6           0       -0.327554    0.653186    0.000000
      2          1           0       -1.417591    0.642852    0.000000
      3          6           0        0.327554   -0.653186    0.000000
      4          1           0        1.417591   -0.642852    0.000000
      5          6           0       -0.327554   -1.831675    0.000000
      6          1           0       -1.414225   -1.875376    0.000000
      7          1           0        0.200726   -2.779853    0.000000
      8          6           0        0.327554    1.831675    0.000000
      9          1           0        1.414225    1.875376    0.000000
     10          1           0       -0.200726    2.779853    0.000000
 ---------------------------------------------------------------------
 Rotational constants (GHZ):          42.1628439           4.3723419           3.9615264
 Standard basis: 6-31+G (6D, 7F)
 There are    26 symmetry adapted cartesian basis functions of AG  symmetry.
 There are     6 symmetry adapted cartesian basis functions of BG  symmetry.
 There are     6 symmetry adapted cartesian basis functions of AU  symmetry.
 There are    26 symmetry adapted cartesian basis functions of BU  symmetry.
 There are    26 symmetry adapted basis functions of AG  symmetry.
 There are     6 symmetry adapted basis functions of BG  symmetry.
 There are     6 symmetry adapted basis functions of AU  symmetry.
 There are    26 symmetry adapted basis functions of BU  symmetry.
    64 basis functions,   128 primitive gaussians,    64 cartesian basis functions
    15 alpha electrons       15 beta electrons
       nuclear repulsion energy       103.2065999843 Hartrees.
 NAtoms=   10 NActive=   10 NUniq=    5 SFac= 4.00D+00 NAtFMM=   60 NAOKFM=F Big=F
 Integral buffers will be    131072 words long.
 Raffenetti 2 integral format.
 Two-electron integral symmetry is turned on.
 One-electron integrals computed using PRISM.
 NBasis=    64 RedAO= T EigKep=  2.93D-05  NBF=    26     6     6    26
 NBsUse=    64 1.00D-06 EigRej= -1.00D+00 NBFU=    26     6     6    26
 Initial guess from the checkpoint file:  "butadiene_scan.chk"
 B after Tr=    -0.000000   -0.000000    0.000000
         Rot=    0.999999   -0.000000   -0.000000   -0.001647 Ang=  -0.19 deg.
 Initial guess orbital symmetries:
       Occupied  (AG) (BU) (BU) (AG) (AG) (BU) (AG) (BU) (BU) (AG)
                 (AG) (BU) (AG) (AU) (BG)
       Virtual   (AU) (AG) (BU) (BU) (BG) (AG) (AG) (AU) (BU) (BG)
                 (AG) (BU) (BG) (AU) (BU) (AG) (AG) (BU) (BU) (AG)
                 (BU) (AG) (BU) (AG) (BU) (AG) (BU) (BU) (AG) (AU)
                 (BG) (BU) (BG) (AU) (AG) (BU) (AG) (AG) (BU) (BU)
                 (AG) (AG) (BU) (BU) (AG) (AG) (BU) (AG) (BU)
 ExpMin= 4.38D-02 ExpMax= 3.05D+03 ExpMxC= 4.57D+02 IAcc=3 IRadAn=         5 AccDes= 0.00D+00
 Harris functional with IExCor=  402 and IRadAn=       5 diagonalized for initial guess.
 HarFok:  IExCor=  402 AccDes= 0.00D+00 IRadAn=         5 IDoV= 1 UseB2=F ITyADJ=14
 ICtDFT=  3500011 ScaDFX=  1.000000  1.000000  1.000000  1.000000
 FoFCou: FMM=F IPFlag=           0 FMFlag=      100000 FMFlg1=           0
         NFxFlg=           0 DoJE=T BraDBF=F KetDBF=T FulRan=T
         wScrn=  0.000000 ICntrl=       500 IOpCl=  0 I1Cent=   200000004 NGrid=           0
         NMat0=    1 NMatS0=      1 NMatT0=    0 NMatD0=    1 NMtDS0=    0 NMtDT0=    0
 Petite list used in FoFCou.
 Keep R1 ints in memory in symmetry-blocked form, NReq=3060191.
 Requested convergence on RMS density matrix=1.00D-08 within 128 cycles.
 Requested convergence on MAX density matrix=1.00D-06.
 Requested convergence on             energy=1.00D-06.
 No special actions if energy rises.
 SCF Done:  E(RB3LYP) =  -155.968483310     A.U. after    8 cycles
            NFock=  8  Conv=0.31D-08     -V/T= 2.0065
 Calling FoFJK, ICntrl=      2127 FMM=F ISym2X=1 I1Cent= 0 IOpClX= 0 NMat=1 NMatS=1 NMatT=0.
 ***** Axes restored to original set *****
 -------------------------------------------------------------------
 Center     Atomic                   Forces (Hartrees/Bohr)
 Number     Number              X              Y              Z
 -------------------------------------------------------------------
      1        6          -0.000092077   -0.000411927   -0.000000000
      2        1           0.000319920    0.000342160   -0.000000000
      3        6           0.000092077    0.000411927   -0.000000000
      4        1          -0.000319920   -0.000342160   -0.000000000
      5        6           0.000866154   -0.000574843   -0.000000000
      6        1          -0.000530316    0.000097826   -0.000000000
      7        1           0.000038021    0.000324261   -0.000000000
      8        6          -0.000866154    0.000574843   -0.000000000
      9        1           0.000530316   -0.000097826   -0.000000000
     10        1          -0.000038021   -0.000324261   -0.000000000
 -------------------------------------------------------------------
 Cartesian Forces:  Max     0.000866154 RMS     0.000353614

 GradGradGradGradGradGradGradGradGradGradGradGradGradGradGradGradGradGrad
 Berny optimization.
 Using GEDIIS/GDIIS optimizer.
 FormGI is forming the generalized inverse of G from B-inverse, IUseBI=4.
 Internal  Forces:  Max     0.000533276 RMS     0.000266715
 Search for a local minimum.
 Step number   3 out of a maximum of   43 on scan point     1 out of    19
 All quantities printed in internal units (Hartrees-Bohrs-Radians)
 Mixed Optimization -- En-DIIS/RFO-DIIS
 Update second derivatives using D2CorX and points    1    2    3
 DE= -2.67D-04 DEPred=-2.56D-04 R= 1.05D+00
 TightC=F SS=  1.41D+00  RLast= 5.20D-02 DXNew= 8.4853D-01 1.5613D-01
 Trust test= 1.05D+00 RLast= 5.20D-02 DXMaxT set to 5.05D-01
 ITU=  1  1  0
 Use linear search instead of GDIIS.
     Eigenvalues ---    0.00878   0.01499   0.02681   0.02681   0.02681
     Eigenvalues ---    0.02681   0.13264   0.16000   0.16000   0.16000
     Eigenvalues ---    0.16205   0.16494   0.21723   0.22000   0.29670
     Eigenvalues ---    0.36552   0.37230   0.37230   0.37230   0.37238
     Eigenvalues ---    0.38077   0.53601   0.539301000.000001000.00000
     Eigenvalues --- 1000.000001000.000001000.000001000.000001000.00000
     Eigenvalues --- 1000.000001000.000001000.00000
 RFO step:  Lambda=-9.30808333D-06 EMin= 8.78237652D-03
 Quartic linear search produced a step of  0.10921.
 Iteration  1 RMS(Cart)=  0.00254594 RMS(Int)=  0.00000495
 Iteration  2 RMS(Cart)=  0.00000474 RMS(Int)=  0.00000000
 Iteration  3 RMS(Cart)=  0.00000000 RMS(Int)=  0.00000000
 Iteration  1 RMS(Cart)=  0.00000000 RMS(Int)=  0.00000000
 ClnCor:  largest displacement from symmetrization is 2.93D-12 for atom     8.
 Variable       Old X    -DE/DX   Delta X   Delta X   Delta X     New X
                                 (Linear)    (Quad)   (Total)
    R1        2.05996   0.00030   0.00065   0.00052   0.00117   2.06113
    R2        2.76170  -0.00008  -0.00148   0.00038  -0.00111   2.76059
    R3        2.54798  -0.00040  -0.00027  -0.00066  -0.00093   2.54705
    R4        2.05996   0.00030   0.00065   0.00052   0.00117   2.06113
    R5        2.54798  -0.00040  -0.00027  -0.00066  -0.00093   2.54705
    R6        2.05517   0.00017   0.00034   0.00036   0.00070   2.05587
    R7        2.05113  -0.00022  -0.00001  -0.00052  -0.00053   2.05060
    R8        2.05517   0.00017   0.00034   0.00036   0.00070   2.05587
    R9        2.05113  -0.00022  -0.00001  -0.00052  -0.00053   2.05060
    A1        2.02614   0.00031  -0.00046   0.00244   0.00198   2.02812
    A2        2.08763  -0.00042  -0.00187  -0.00133  -0.00320   2.08443
    A3        2.16942   0.00011   0.00233  -0.00111   0.00122   2.17063
    A4        2.02614   0.00031  -0.00046   0.00244   0.00198   2.02812
    A5        2.16942   0.00011   0.00233  -0.00111   0.00122   2.17063
    A6        2.08763  -0.00042  -0.00187  -0.00133  -0.00320   2.08443
    A7        2.11834   0.00053   0.00066   0.00319   0.00385   2.12220
    A8        2.12592  -0.00002   0.00120  -0.00098   0.00021   2.12614
    A9        2.03892  -0.00052  -0.00186  -0.00221  -0.00407   2.03485
   A10        2.11834   0.00053   0.00066   0.00319   0.00385   2.12220
   A11        2.12592  -0.00002   0.00120  -0.00098   0.00021   2.12614
   A12        2.03892  -0.00052  -0.00186  -0.00221  -0.00407   2.03485
    D1        3.14159  -0.00000   0.00000  -0.00000   0.00000   3.14159
    D2        0.00000  -0.00000   0.00000  -0.00000   0.00000   0.00000
    D3        0.00000  -0.00000   0.00000  -0.00000   0.00000   0.00000
    D4        3.14159  -0.00000   0.00000   0.00000   0.00000   3.14159
    D5        3.14159   0.00000   0.00000   0.00000   0.00000   3.14159
    D6        0.00000   0.00000   0.00000   0.00000   0.00000   0.00000
    D7        0.00000   0.00000   0.00000   0.00000   0.00000   0.00000
    D8        3.14159   0.00000   0.00000   0.00000   0.00000   3.14159
    D9        0.00000  -0.00000   0.00000   0.00000   0.00000   0.00000
   D10        3.14159  -0.00000   0.00000  -0.00000   0.00000   3.14159
   D11        3.14159  -0.00000   0.00000   0.00000   0.00000   3.14159
   D12        0.00000   0.00000   0.00000   0.00000   0.00000   0.00000
         Item               Value     Threshold  Converged?
 Maximum Force            0.000533     0.000450     NO 
 RMS     Force            0.000271     0.000300     YES
 Maximum Displacement     0.008246     0.001800     NO 
 RMS     Displacement     0.002546     0.001200     NO 
 Predicted change in Energy=-7.246719D-06
 GradGradGradGradGradGradGradGradGradGradGradGradGradGradGradGradGradGrad

                          Input orientation:                          
 ---------------------------------------------------------------------
 Center     Atomic      Atomic             Coordinates (Angstroms)
 Number     Number       Type             X           Y           Z
 ---------------------------------------------------------------------
      1          6           0        0.616970    0.390976    0.000000
      2          1           0        0.499936    1.475384    0.000000
      3          6           0       -0.616970   -0.390976    0.000000
      4          1           0       -0.499936   -1.475384    0.000000
      5          6           0       -1.855177    0.141494    0.000000
      6          1           0       -2.012668    1.217953    0.000000
      7          1           0       -2.745018   -0.479547    0.000000
      8          6           0        1.855177   -0.141494    0.000000
      9          1           0        2.012668   -1.217953    0.000000
     10          1           0        2.745018    0.479547    0.000000
 ---------------------------------------------------------------------
                    Distance matrix (angstroms):
                    1          2          3          4          5
     1  C    0.000000
     2  H    1.090705   0.000000
     3  C    1.460842   2.175036   0.000000
     4  H    2.175036   3.115570   1.090705   0.000000
     5  C    2.484704   2.706625   1.347843   2.109732   0.000000
     6  H    2.756608   2.525758   2.129936   3.089081   1.087919
     7  H    3.472863   3.788335   2.129890   2.456030   1.085131
     8  C    1.347843   2.109732   2.484704   2.706625   3.721130
     9  H    2.129936   3.089081   2.756608   2.525758   4.099795
    10  H    2.129890   2.456030   3.472863   3.788335   4.612599
                    6          7          8          9         10
     6  H    0.000000
     7  H    1.848741   0.000000
     8  C    4.099795   4.612599   0.000000
     9  H    4.704994   4.814646   1.087919   0.000000
    10  H    4.814646   5.573182   1.085131   1.848741   0.000000
 Stoichiometry    C4H6
 Framework group  C2H[SGH(C4H6)]
 Deg. of freedom     9
 Full point group                 C2H     NOp   4
 Largest Abelian subgroup         C2H     NOp   4
 Largest concise Abelian subgroup C2      NOp   2
                         Standard orientation:                         
 ---------------------------------------------------------------------
 Center     Atomic      Atomic             Coordinates (Angstroms)
 Number     Number       Type             X           Y           Z
 ---------------------------------------------------------------------
      1          6           0       -0.327052    0.653109    0.000000
      2          1           0       -1.417731    0.645549    0.000000
      3          6           0        0.327052   -0.653109    0.000000
      4          1           0        1.417731   -0.645549    0.000000
      5          6           0       -0.327052   -1.831594    0.000000
      6          1           0       -1.413885   -1.880206    0.000000
      7          1           0        0.201504   -2.779296    0.000000
      8          6           0        0.327052    1.831594    0.000000
      9          1           0        1.413885    1.880206    0.000000
     10          1           0       -0.201504    2.779296    0.000000
 ---------------------------------------------------------------------
 Rotational constants (GHZ):          42.2072921           4.3714272           3.9611674
 Standard basis: 6-31+G (6D, 7F)
 There are    26 symmetry adapted cartesian basis functions of AG  symmetry.
 There are     6 symmetry adapted cartesian basis functions of BG  symmetry.
 There are     6 symmetry adapted cartesian basis functions of AU  symmetry.
 There are    26 symmetry adapted cartesian basis functions of BU  symmetry.
 There are    26 symmetry adapted basis functions of AG  symmetry.
 There are     6 symmetry adapted basis functions of BG  symmetry.
 There are     6 symmetry adapted basis functions of AU  symmetry.
 There are    26 symmetry adapted basis functions of BU  symmetry.
    64 basis functions,   128 primitive gaussians,    64 cartesian basis functions
    15 alpha electrons       15 beta electrons
       nuclear repulsion energy       103.2108047420 Hartrees.
 NAtoms=   10 NActive=   10 NUniq=    5 SFac= 4.00D+00 NAtFMM=   60 NAOKFM=F Big=F
 Integral buffers will be    131072 words long.
 Raffenetti 2 integral format.
 Two-electron integral symmetry is turned on.
 One-electron integrals computed using PRISM.
 NBasis=    64 RedAO= T EigKep=  2.92D-05  NBF=    26     6     6    26
 NBsUse=    64 1.00D-06 EigRej= -1.00D+00 NBFU=    26     6     6    26
 Initial guess from the checkpoint file:  "butadiene_scan.chk"
 B after Tr=     0.000000    0.000000    0.000000
         Rot=    1.000000   -0.000000    0.000000   -0.000120 Ang=  -0.01 deg.
 Initial guess orbital symmetries:
       Occupied  (AG) (BU) (BU) (AG) (AG) (BU) (AG) (BU) (BU) (AG)
                 (AG) (BU) (AG) (AU) (BG)
       Virtual   (AU) (AG) (BU) (BU) (BG) (AG) (AG) (AU) (BU) (BG)
                 (AG) (BU) (BG) (AU) (BU) (AG) (AG) (BU) (BU) (AG)
                 (BU) (AG) (BU) (AG) (BU) (AG) (BU) (BU) (AG) (AU)
                 (BG) (BU) (BG) (AU) (AG) (BU) (AG) (AG) (BU) (BU)
                 (AG) (AG) (BU) (BU) (AG) (AG) (BU) (AG) (BU)
 Keep R1 ints in memory in symmetry-blocked form, NReq=3060191.
 Requested convergence on RMS density matrix=1.00D-08 within 128 cycles.
 Requested convergence on MAX density matrix=1.00D-06.
 Requested convergence on             energy=1.00D-06.
 No special actions if energy rises.
 SCF Done:  E(RB3LYP) =  -155.968491093     A.U. after    7 cycles
            NFock=  7  Conv=0.53D-08     -V/T= 2.0065
 Calling FoFJK, ICntrl=      2127 FMM=F ISym2X=1 I1Cent= 0 IOpClX= 0 NMat=1 NMatS=1 NMatT=0.
 ***** Axes restored to original set *****
 -------------------------------------------------------------------
 Center     Atomic                   Forces (Hartrees/Bohr)
 Number     Number              X              Y              Z
 -------------------------------------------------------------------
      1        6          -0.000039787    0.000271186   -0.000000000
      2        1           0.000043302   -0.000091039   -0.000000000
      3        6           0.000039787   -0.000271186   -0.000000000
      4        1          -0.000043302    0.000091039   -0.000000000
      5        6           0.000059745    0.000140077   -0.000000000
      6        1          -0.000078552   -0.000067275   -0.000000000
      7        1          -0.000055432    0.000002946   -0.000000000
      8        6          -0.000059745   -0.000140077   -0.000000000
      9        1           0.000078552    0.000067275   -0.000000000
     10        1           0.000055432   -0.000002946   -0.000000000
 -------------------------------------------------------------------
 Cartesian Forces:  Max     0.000271186 RMS     0.000090280

 GradGradGradGradGradGradGradGradGradGradGradGradGradGradGradGradGradGrad
 Berny optimization.
 Using GEDIIS/GDIIS optimizer.
 FormGI is forming the generalized inverse of G from B-inverse, IUseBI=4.
 Internal  Forces:  Max     0.000121300 RMS     0.000055226
 Search for a local minimum.
 Step number   4 out of a maximum of   43 on scan point     1 out of    19
 All quantities printed in internal units (Hartrees-Bohrs-Radians)
 Mixed Optimization -- En-DIIS/RFO-DIIS
 Swapping is turned off.
 Update second derivatives using D2CorX and points    1    2    3    4
 DE= -7.78D-06 DEPred=-7.25D-06 R= 1.07D+00
 TightC=F SS=  1.41D+00  RLast= 1.01D-02 DXNew= 8.4853D-01 3.0209D-02
 Trust test= 1.07D+00 RLast= 1.01D-02 DXMaxT set to 5.05D-01
 ITU=  1  1  1  0
     Eigenvalues ---    0.00876   0.01495   0.02681   0.02681   0.02681
     Eigenvalues ---    0.02681   0.11507   0.16000   0.16000   0.16000
     Eigenvalues ---    0.16151   0.16421   0.21685   0.22000   0.29338
     Eigenvalues ---    0.37214   0.37230   0.37230   0.37230   0.37760
     Eigenvalues ---    0.38290   0.53930   0.550801000.000001000.00000
     Eigenvalues --- 1000.000001000.000001000.000001000.000001000.00000
     Eigenvalues --- 1000.000001000.000001000.00000
 En-DIIS/RFO-DIIS/Sim-DIIS IScMMF=       -3 using points:     4    3
 RFO step:  Lambda=-4.42533547D-07.
 DidBck=F Rises=F RFO-DIIS coefs:    1.12169   -0.12169
 Iteration  1 RMS(Cart)=  0.00047335 RMS(Int)=  0.00000012
 Iteration  2 RMS(Cart)=  0.00000011 RMS(Int)=  0.00000000
 Iteration  1 RMS(Cart)=  0.00000000 RMS(Int)=  0.00000000
 ClnCor:  largest displacement from symmetrization is 5.09D-13 for atom     8.
 Variable       Old X    -DE/DX   Delta X   Delta X   Delta X     New X
                                 (Linear)    (Quad)   (Total)
    R1        2.06113  -0.00010   0.00014  -0.00037  -0.00023   2.06090
    R2        2.76059   0.00012  -0.00013   0.00050   0.00037   2.76096
    R3        2.54705   0.00010  -0.00011   0.00028   0.00017   2.54722
    R4        2.06113  -0.00010   0.00014  -0.00037  -0.00023   2.06090
    R5        2.54705   0.00010  -0.00011   0.00028   0.00017   2.54722
    R6        2.05587  -0.00006   0.00008  -0.00021  -0.00013   2.05574
    R7        2.05060   0.00004  -0.00006   0.00019   0.00012   2.05073
    R8        2.05587  -0.00006   0.00008  -0.00021  -0.00013   2.05574
    R9        2.05060   0.00004  -0.00006   0.00019   0.00012   2.05073
    A1        2.02812   0.00004   0.00024   0.00005   0.00029   2.02841
    A2        2.08443  -0.00002  -0.00039   0.00013  -0.00026   2.08417
    A3        2.17063  -0.00002   0.00015  -0.00018  -0.00003   2.17060
    A4        2.02812   0.00004   0.00024   0.00005   0.00029   2.02841
    A5        2.17063  -0.00002   0.00015  -0.00018  -0.00003   2.17060
    A6        2.08443  -0.00002  -0.00039   0.00013  -0.00026   2.08417
    A7        2.12220   0.00010   0.00047   0.00027   0.00074   2.12294
    A8        2.12614  -0.00001   0.00003  -0.00009  -0.00006   2.12607
    A9        2.03485  -0.00008  -0.00050  -0.00018  -0.00067   2.03418
   A10        2.12220   0.00010   0.00047   0.00027   0.00074   2.12294
   A11        2.12614  -0.00001   0.00003  -0.00009  -0.00006   2.12607
   A12        2.03485  -0.00008  -0.00050  -0.00018  -0.00067   2.03418
    D1        3.14159   0.00000   0.00000   0.00000   0.00000   3.14159
    D2        0.00000   0.00000   0.00000   0.00000   0.00000   0.00000
    D3        0.00000  -0.00000   0.00000  -0.00000   0.00000   0.00000
    D4        3.14159  -0.00000   0.00000   0.00000   0.00000   3.14159
    D5        3.14159  -0.00000   0.00000  -0.00000   0.00000   3.14159
    D6        0.00000  -0.00000   0.00000  -0.00000   0.00000   0.00000
    D7        0.00000   0.00000   0.00000  -0.00000   0.00000   0.00000
    D8        3.14159   0.00000   0.00000  -0.00000   0.00000   3.14159
    D9        0.00000  -0.00000   0.00000   0.00000   0.00000   0.00000
   D10        3.14159  -0.00000   0.00000  -0.00000   0.00000   3.14159
   D11        3.14159   0.00000   0.00000   0.00000   0.00000   3.14159
   D12        0.00000   0.00000   0.00000   0.00000   0.00000   0.00000
         Item               Value     Threshold  Converged?
 Maximum Force            0.000121     0.000450     YES
 RMS     Force            0.000056     0.000300     YES
 Maximum Displacement     0.001604     0.001800     YES
 RMS     Displacement     0.000473     0.001200     YES
 Predicted change in Energy=-2.212673D-07
 Optimization completed.
    -- Stationary point found.
                           ----------------------------
                           !   Optimized Parameters   !
                           ! (Angstroms and Degrees)  !
 --------------------------                            --------------------------
 ! Name  Definition              Value          Derivative Info.                !
 --------------------------------------------------------------------------------
 ! R1    R(1,2)                  1.0907         -DE/DX =   -0.0001              !
 ! R2    R(1,3)                  1.4608         -DE/DX =    0.0001              !
 ! R3    R(1,8)                  1.3478         -DE/DX =    0.0001              !
 ! R4    R(3,4)                  1.0907         -DE/DX =   -0.0001              !
 ! R5    R(3,5)                  1.3478         -DE/DX =    0.0001              !
 ! R6    R(5,6)                  1.0879         -DE/DX =   -0.0001              !
 ! R7    R(5,7)                  1.0851         -DE/DX =    0.0                 !
 ! R8    R(8,9)                  1.0879         -DE/DX =   -0.0001              !
 ! R9    R(8,10)                 1.0851         -DE/DX =    0.0                 !
 ! A1    A(2,1,3)              116.2028         -DE/DX =    0.0                 !
 ! A2    A(2,1,8)              119.4291         -DE/DX =    0.0                 !
 ! A3    A(3,1,8)              124.3681         -DE/DX =    0.0                 !
 ! A4    A(1,3,4)              116.2028         -DE/DX =    0.0                 !
 ! A5    A(1,3,5)              124.3681         -DE/DX =    0.0                 !
 ! A6    A(4,3,5)              119.4291         -DE/DX =    0.0                 !
 ! A7    A(3,5,6)              121.5929         -DE/DX =    0.0001              !
 ! A8    A(3,5,7)              121.8186         -DE/DX =    0.0                 !
 ! A9    A(6,5,7)              116.5885         -DE/DX =   -0.0001              !
 ! A10   A(1,8,9)              121.5929         -DE/DX =    0.0001              !
 ! A11   A(1,8,10)             121.8186         -DE/DX =    0.0                 !
 ! A12   A(9,8,10)             116.5885         -DE/DX =   -0.0001              !
 ! D1    D(2,1,3,4)            180.0            -DE/DX =    0.0                 !
 ! D2    D(2,1,3,5)              0.0            -DE/DX =    0.0                 !
 ! D3    D(8,1,3,4)              0.0            -DE/DX =    0.0                 !
 ! D4    D(8,1,3,5)            180.0            -DE/DX =    0.0                 !
 ! D5    D(2,1,8,9)            180.0            -DE/DX =    0.0                 !
 ! D6    D(2,1,8,10)             0.0            -DE/DX =    0.0                 !
 ! D7    D(3,1,8,9)              0.0            -DE/DX =    0.0                 !
 ! D8    D(3,1,8,10)           180.0            -DE/DX =    0.0                 !
 ! D9    D(1,3,5,6)              0.0            -DE/DX =    0.0                 !
 ! D10   D(1,3,5,7)            180.0            -DE/DX =    0.0                 !
 ! D11   D(4,3,5,6)            180.0            -DE/DX =    0.0                 !
 ! D12   D(4,3,5,7)              0.0            -DE/DX =    0.0                 !
 --------------------------------------------------------------------------------
 Iteration  1 RMS(Cart)=  0.03239222 RMS(Int)=  0.02164512
 Iteration  2 RMS(Cart)=  0.00094248 RMS(Int)=  0.02163839
 Iteration  3 RMS(Cart)=  0.00000658 RMS(Int)=  0.02163839
 Iteration  4 RMS(Cart)=  0.00000023 RMS(Int)=  0.02163839
 Iteration  1 RMS(Cart)=  0.01644937 RMS(Int)=  0.01097007
 Iteration  2 RMS(Cart)=  0.00835680 RMS(Int)=  0.01226198
 Iteration  3 RMS(Cart)=  0.00424007 RMS(Int)=  0.01373164
 Iteration  4 RMS(Cart)=  0.00214941 RMS(Int)=  0.01462254
 Iteration  5 RMS(Cart)=  0.00108903 RMS(Int)=  0.01510395
 Iteration  6 RMS(Cart)=  0.00055162 RMS(Int)=  0.01535466
 Iteration  7 RMS(Cart)=  0.00027937 RMS(Int)=  0.01548330
 Iteration  8 RMS(Cart)=  0.00014148 RMS(Int)=  0.01554886
 Iteration  9 RMS(Cart)=  0.00007164 RMS(Int)=  0.01558217
 Iteration 10 RMS(Cart)=  0.00003628 RMS(Int)=  0.01559906
 Iteration 11 RMS(Cart)=  0.00001837 RMS(Int)=  0.01560762
 Iteration 12 RMS(Cart)=  0.00000930 RMS(Int)=  0.01561195
 Iteration 13 RMS(Cart)=  0.00000471 RMS(Int)=  0.01561415
 Iteration 14 RMS(Cart)=  0.00000239 RMS(Int)=  0.01561526
 Iteration 15 RMS(Cart)=  0.00000121 RMS(Int)=  0.01561582
 Iteration 16 RMS(Cart)=  0.00000061 RMS(Int)=  0.01561611
 GradGradGradGradGradGradGradGradGradGradGradGradGradGradGradGradGradGrad

                          Input orientation:                          
 ---------------------------------------------------------------------
 Center     Atomic      Atomic             Coordinates (Angstroms)
 Number     Number       Type             X           Y           Z
 ---------------------------------------------------------------------
      1          6           0        0.617360    0.390541    0.074455
      2          1           0        0.503010    1.475112    0.075661
      3          6           0       -0.617360   -0.390541    0.074455
      4          1           0       -0.503010   -1.475112    0.075661
      5          6           0       -1.852679    0.140759   -0.022605
      6          1           0       -2.009377    1.216374   -0.068384
      7          1           0       -2.741595   -0.480738   -0.059128
      8          6           0        1.852679   -0.140759   -0.022605
      9          1           0        2.009377   -1.216374   -0.068384
     10          1           0        2.741595    0.480738   -0.059128
 ---------------------------------------------------------------------
                    Distance matrix (angstroms):
                    1          2          3          4          5
     1  C    0.000000
     2  H    1.090583   0.000000
     3  C    1.461035   2.176211   0.000000
     4  H    2.176211   3.117035   1.090583   0.000000
     5  C    2.484533   2.709138   1.348226   2.107677   0.000000
     6  H    2.757199   2.529779   2.130796   3.087716   1.087933
     7  H    3.472687   3.790908   2.130342   2.453204   1.085249
     8  C    1.348226   2.107677   2.484533   2.709138   3.716037
     9  H    2.130796   3.087716   2.757199   2.529779   4.093822
    10  H    2.130342   2.453204   3.472687   3.790908   4.606981
                    6          7          8          9         10
     6  H    0.000000
     7  H    1.848356   0.000000
     8  C    4.093822   4.606981   0.000000
     9  H    4.697727   4.807596   1.087933   0.000000
    10  H    4.807596   5.566850   1.085249   1.848356   0.000000
 Stoichiometry    C4H6
 Framework group  C1[X(C4H6)]
 Deg. of freedom    24
 Full point group                 C1      NOp   1
 Omega: Change in point group or standard orientation.

 Old FWG=C02H [SGH(C4H6)]
 New FWG=C01  [X(C4H6)]
 Largest Abelian subgroup         C1      NOp   1
 Largest concise Abelian subgroup C1      NOp   1
                         Standard orientation:                         
 ---------------------------------------------------------------------
 Center     Atomic      Atomic             Coordinates (Angstroms)
 Number     Number       Type             X           Y           Z
 ---------------------------------------------------------------------
      1          6           0        0.610686    0.400897    0.057172
      2          1           0        0.478062    1.483386    0.058377
      3          6           0       -0.610686   -0.400897    0.057172
      4          1           0       -0.478062   -1.483386    0.058377
      5          6           0       -1.854789    0.109495   -0.039888
      6          1           0       -2.029604    1.182314   -0.085667
      7          1           0       -2.733098   -0.526905   -0.076411
      8          6           0        1.854789   -0.109495   -0.039888
      9          1           0        2.029604   -1.182314   -0.085667
     10          1           0        2.733098    0.526905   -0.076411
 ---------------------------------------------------------------------
 Rotational constants (GHZ):          41.7517042           4.3760200           3.9701681
 Standard basis: 6-31+G (6D, 7F)
 There are    64 symmetry adapted cartesian basis functions of A   symmetry.
 There are    64 symmetry adapted basis functions of A   symmetry.
    64 basis functions,   128 primitive gaussians,    64 cartesian basis functions
    15 alpha electrons       15 beta electrons
       nuclear repulsion energy       103.2103701746 Hartrees.
 NAtoms=   10 NActive=   10 NUniq=   10 SFac= 1.00D+00 NAtFMM=   60 NAOKFM=F Big=F
 Integral buffers will be    131072 words long.
 Raffenetti 2 integral format.
 Two-electron integral symmetry is turned on.
 One-electron integrals computed using PRISM.
 NBasis=    64 RedAO= T EigKep=  3.32D-05  NBF=    64
 NBsUse=    64 1.00D-06 EigRej= -1.00D+00 NBFU=    64
 Initial guess from the checkpoint file:  "butadiene_scan.chk"
 B after Tr=     0.000000    0.000000    0.000000
         Rot=    0.747411   -0.000000    0.000000    0.664362 Ang=  83.27 deg.
 Keep R1 ints in memory in canonical form, NReq=3054347.
 Requested convergence on RMS density matrix=1.00D-08 within 128 cycles.
 Requested convergence on MAX density matrix=1.00D-06.
 Requested convergence on             energy=1.00D-06.
 No special actions if energy rises.
 SCF Done:  E(RB3LYP) =  -155.967975989     A.U. after    9 cycles
            NFock=  9  Conv=0.45D-08     -V/T= 2.0065
 Calling FoFJK, ICntrl=      2127 FMM=F ISym2X=0 I1Cent= 0 IOpClX= 0 NMat=1 NMatS=1 NMatT=0.
 ***** Axes restored to original set *****
 -------------------------------------------------------------------
 Center     Atomic                   Forces (Hartrees/Bohr)
 Number     Number              X              Y              Z
 -------------------------------------------------------------------
      1        6           0.000391533    0.000251522   -0.004710111
      2        1          -0.000190035   -0.000017115    0.002092447
      3        6          -0.000391541   -0.000251516   -0.004710111
      4        1           0.000190035    0.000017113    0.002092447
      5        6           0.000101586    0.000249260    0.002175823
      6        1          -0.000038659   -0.000038177    0.000499718
      7        1           0.000037944   -0.000021977   -0.000057876
      8        6          -0.000101581   -0.000249255    0.002175822
      9        1           0.000038661    0.000038164    0.000499717
     10        1          -0.000037944    0.000021981   -0.000057876
 -------------------------------------------------------------------
 Cartesian Forces:  Max     0.004710111 RMS     0.001457876

 GradGradGradGradGradGradGradGradGradGradGradGradGradGradGradGradGradGrad
 Berny optimization.
 FormGI is forming the generalized inverse of G from B-inverse, IUseBI=4.
 Internal  Forces:  Max     0.002916572 RMS     0.000851753
 Search for a local minimum.
 Step number   1 out of a maximum of   43 on scan point     2 out of    19
 All quantities printed in internal units (Hartrees-Bohrs-Radians)
 Mixed Optimization -- RFO/linear search
 Second derivative matrix not updated -- first step.
 ITU=  0
     Eigenvalues ---    0.00880   0.01506   0.02681   0.02681   0.02681
     Eigenvalues ---    0.02681   0.11502   0.15969   0.16000   0.16000
     Eigenvalues ---    0.16150   0.16383   0.21689   0.22009   0.29338
     Eigenvalues ---    0.37214   0.37230   0.37230   0.37230   0.37760
     Eigenvalues ---    0.38290   0.53930   0.550801000.000001000.00000
     Eigenvalues --- 1000.000001000.000001000.000001000.000001000.00000
     Eigenvalues --- 1000.000001000.000001000.00000
 RFO step:  Lambda=-6.18554999D-04 EMin= 8.80196916D-03
 Linear search not attempted -- first point.
 Iteration  1 RMS(Cart)=  0.04088640 RMS(Int)=  0.00172156
 Iteration  2 RMS(Cart)=  0.00152368 RMS(Int)=  0.00046587
 Iteration  3 RMS(Cart)=  0.00000074 RMS(Int)=  0.00046587
 Iteration  1 RMS(Cart)=  0.00001910 RMS(Int)=  0.00001275
 Iteration  2 RMS(Cart)=  0.00000969 RMS(Int)=  0.00001425
 Iteration  3 RMS(Cart)=  0.00000492 RMS(Int)=  0.00001596
 Iteration  4 RMS(Cart)=  0.00000249 RMS(Int)=  0.00001700
 Iteration  5 RMS(Cart)=  0.00000127 RMS(Int)=  0.00001756
 Iteration  6 RMS(Cart)=  0.00000064 RMS(Int)=  0.00001785
 Variable       Old X    -DE/DX   Delta X   Delta X   Delta X     New X
                                 (Linear)    (Quad)   (Total)
    R1        2.06090   0.00001   0.00000   0.00004   0.00004   2.06094
    R2        2.76096   0.00011   0.00000   0.00032   0.00032   2.76128
    R3        2.54778  -0.00021   0.00000  -0.00039  -0.00039   2.54739
    R4        2.06090   0.00001   0.00000   0.00004   0.00004   2.06094
    R5        2.54778  -0.00021   0.00000  -0.00039  -0.00039   2.54739
    R6        2.05589  -0.00005   0.00000  -0.00014  -0.00014   2.05575
    R7        2.05082  -0.00002   0.00000  -0.00007  -0.00007   2.05076
    R8        2.05589  -0.00005   0.00000  -0.00014  -0.00014   2.05575
    R9        2.05082  -0.00002   0.00000  -0.00007  -0.00007   2.05076
    A1        2.02980  -0.00031   0.00000   0.00003  -0.00106   2.02874
    A2        2.08065   0.00035   0.00000   0.00438   0.00329   2.08394
    A3        2.16960   0.00012   0.00000   0.00200   0.00091   2.17050
    A4        2.02980  -0.00031   0.00000   0.00003  -0.00106   2.02874
    A5        2.16960   0.00012   0.00000   0.00200   0.00091   2.17050
    A6        2.08065   0.00035   0.00000   0.00438   0.00329   2.08394
    A7        2.12306   0.00004   0.00000   0.00001  -0.00002   2.12304
    A8        2.12615  -0.00006   0.00000  -0.00026  -0.00028   2.12586
    A9        2.03398   0.00001   0.00000   0.00025   0.00022   2.03421
   A10        2.12306   0.00004   0.00000   0.00001  -0.00002   2.12304
   A11        2.12615  -0.00006   0.00000  -0.00026  -0.00028   2.12586
   A12        2.03398   0.00001   0.00000   0.00025   0.00022   2.03421
    D1       -3.13913   0.00163   0.00000   0.17554   0.17544  -2.96369
    D2        0.08850  -0.00065   0.00000   0.08777   0.08772   0.17622
    D3        0.08850  -0.00065   0.00000   0.08777   0.08772   0.17622
    D4       -2.96706  -0.00292   0.00000   0.00000   0.00000  -2.96706
    D5       -3.09742  -0.00159   0.00000  -0.06092  -0.06099   3.12478
    D6        0.04418  -0.00120   0.00000  -0.04691  -0.04699  -0.00281
    D7       -0.04420   0.00071   0.00000   0.02904   0.02911  -0.01508
    D8        3.09740   0.00110   0.00000   0.04304   0.04312   3.14052
    D9       -0.04420   0.00071   0.00000   0.02904   0.02911  -0.01508
   D10        3.09740   0.00110   0.00000   0.04304   0.04312   3.14052
   D11       -3.09742  -0.00159   0.00000  -0.06092  -0.06099   3.12478
   D12        0.04418  -0.00120   0.00000  -0.04691  -0.04699  -0.00281
         Item               Value     Threshold  Converged?
 Maximum Force            0.001664     0.000450     NO 
 RMS     Force            0.000458     0.000300     NO 
 Maximum Displacement     0.124620     0.001800     NO 
 RMS     Displacement     0.040887     0.001200     NO 
 Predicted change in Energy=-3.303902D-04
 GradGradGradGradGradGradGradGradGradGradGradGradGradGradGradGradGradGrad

                          Input orientation:                          
 ---------------------------------------------------------------------
 Center     Atomic      Atomic             Coordinates (Angstroms)
 Number     Number       Type             X           Y           Z
 ---------------------------------------------------------------------
      1          6           0        0.617511    0.390462    0.054706
      2          1           0        0.504297    1.471688    0.141607
      3          6           0       -0.617511   -0.390462    0.054706
      4          1           0       -0.504297   -1.471688    0.141607
      5          6           0       -1.853021    0.139888   -0.042282
      6          1           0       -2.008872    1.214066   -0.114981
      7          1           0       -2.743509   -0.480361   -0.039049
      8          6           0        1.853021   -0.139888   -0.042282
      9          1           0        2.008872   -1.214066   -0.114981
     10          1           0        2.743509    0.480361   -0.039049
 ---------------------------------------------------------------------
                    Distance matrix (angstroms):
                    1          2          3          4          5
     1  C    0.000000
     2  H    1.090605   0.000000
     3  C    1.461206   2.175685   0.000000
     4  H    2.175685   3.111385   1.090605   0.000000
     5  C    2.485101   2.713753   1.348022   2.109514   0.000000
     6  H    2.757718   2.539336   2.130537   3.089151   1.087857
     7  H    3.473267   3.793597   2.129962   2.455491   1.085213
     8  C    1.348022   2.109514   2.485101   2.713753   3.716588
     9  H    2.130537   3.089151   2.757718   2.539336   4.093006
    10  H    2.129962   2.455491   3.473267   3.793597   4.609124
                    6          7          8          9         10
     6  H    0.000000
     7  H    1.848388   0.000000
     8  C    4.093006   4.609124   0.000000
     9  H    4.694475   4.809285   1.087857   0.000000
    10  H    4.809285   5.570490   1.085213   1.848388   0.000000
 Stoichiometry    C4H6
 Framework group  C1[X(C4H6)]
 Deg. of freedom    24
 Full point group                 C1      NOp   1
 Largest Abelian subgroup         C1      NOp   1
 Largest concise Abelian subgroup C1      NOp   1
                         Standard orientation:                         
 ---------------------------------------------------------------------
 Center     Atomic      Atomic             Coordinates (Angstroms)
 Number     Number       Type             X           Y           Z
 ---------------------------------------------------------------------
      1          6           0        0.611045    0.400505    0.050564
      2          1           0        0.480169    1.479736    0.137466
[...]
     Eigenvalues --    -0.96849  -0.96814  -0.96712  -0.96550  -0.96342
           R1           1.09070   1.09057   1.09064   1.09077   1.09094
           R2           1.46084   1.46178   1.46332   1.46676   1.47122
           R3           1.34784   1.34788   1.34753   1.34699   1.34634
           R4           1.09070   1.09057   1.09064   1.09077   1.09094
           R5           1.34784   1.34788   1.34753   1.34699   1.34634
           R6           1.08792   1.08784   1.08783   1.08786   1.08784
           R7           1.08513   1.08523   1.08528   1.08545   1.08556
           R8           1.08792   1.08784   1.08783   1.08786   1.08784
           R9           1.08513   1.08523   1.08528   1.08545   1.08556
           A1         116.20283 116.22952 116.24544 116.25560 116.32746
           A2         119.42907 119.37714 119.29313 119.18197 119.00807
           A3         124.36810 124.35517 124.31771 124.28145 124.27680
           A4         116.20283 116.22952 116.24544 116.25560 116.32744
           A5         124.36810 124.35517 124.31771 124.28145 124.27676
           A6         119.42907 119.37714 119.29314 119.18197 119.00805
           A7         121.59292 121.64564 121.67982 121.74180 121.80216
           A8         121.81859 121.79808 121.75657 121.71627 121.62096
           A9         116.58849 116.55618 116.56198 116.53963 116.57333
           A10        121.59292 121.64564 121.67982 121.74180 121.80217
           A11        121.81859 121.79808 121.75657 121.71627 121.62096
           A12        116.58849 116.55618 116.56198 116.53963 116.57332
           D1         180.00000-174.53741-168.80558-162.31560-154.48211
           D2           0.00000   7.73126  15.59727  23.84226  32.75930
           D3           0.00000   7.73126  15.59726  23.84224  32.75871
           D4         180.00000-170.00008-159.99989-149.99989-139.99988
           D5         180.00000-179.35912-178.82992-178.25941-177.87495
           D6           0.00000   0.76391   1.64987   2.31182   2.83411
           D7           0.00000  -1.69452  -3.35812  -4.58547  -5.29662
           D8         180.00000 178.42850 177.12167 175.98576 175.41244
           D9           0.00000  -1.69452  -3.35813  -4.58549  -5.29687
           D10        180.00000 178.42850 177.12167 175.98574 175.41196
           D11        180.00000-179.35912-178.82993-178.25940-177.87459
           D12          0.00000   0.76391   1.64988   2.31183   2.83424
                           6         7         8         9        10
     Eigenvalues --    -0.96111  -0.95895  -0.95742  -0.95685  -0.95722
           R1           1.09103   1.09128   1.09159   1.09208   1.09246
           R2           1.47695   1.48297   1.48821   1.48990   1.48839
           R3           1.34521   1.34399   1.34270   1.34201   1.34201
           R4           1.09103   1.09128   1.09159   1.09208   1.09245
           R5           1.34521   1.34398   1.34271   1.34201   1.34204
           R6           1.08788   1.08768   1.08757   1.08734   1.08720
           R7           1.08579   1.08601   1.08627   1.08643   1.08646
           R8           1.08788   1.08768   1.08757   1.08734   1.08720
           R9           1.08579   1.08602   1.08627   1.08643   1.08646
           A1         116.41125 116.49548 116.44491 116.20674 115.91934
           A2         118.94165 118.88753 118.96546 119.01401 119.03521
           A3         124.25821 124.37798 124.53772 124.77437 124.96140
           A4         116.41116 116.49524 116.44329 116.20775 115.91267
           A5         124.25790 124.37461 124.53785 124.77461 124.96237
           A6         118.94146 118.88557 118.96717 119.01274 119.03871
           A7         121.86689 121.92331 121.89121 121.82584 121.72698
           A8         121.59535 121.47324 121.49037 121.48406 121.51793
           A9         116.53421 116.60159 116.61828 116.68952 116.75277
           A10        121.86688 121.92318 121.89130 121.82510 121.72866
           A11        121.59536 121.47342 121.49020 121.48455 121.51584
           A12        116.53418 116.60125 116.61836 116.68980 116.75394
           D1        -144.51806-131.45958-115.30676 -98.36904 -83.19640
           D2          42.74374  54.30320  67.34358  80.81447  93.37989
           D3          42.73830  54.23733  67.34961  80.81656  93.42386
           D4        -129.99989-119.99989-110.00006 -99.99993 -89.99985
           D5        -177.71238-177.99792-178.82724 179.91759 178.60492
           D6           3.00023   2.55449   1.30962  -0.35953  -1.86443
           D7          -5.13977  -3.82149  -1.54574   0.75313   2.08175
           D8         175.57284 176.73092 178.59112-179.52398-178.38759
           D9          -5.14161  -3.84075  -1.54284   0.75944   2.16632
           D10        175.56818 176.67341 178.59607-179.52592-178.40514
           D11       -177.70865-177.94993-178.83042 179.92177 178.64393
           D12          3.00113   2.56423   1.30849  -0.36359  -1.92753
                          11        12        13        14        15
     Eigenvalues --    -0.95822  -0.95954  -0.96086  -0.96195  -0.96264
           R1           1.09253   1.09227   1.09184   1.09134   1.09084
           R2           1.48512   1.48124   1.47782   1.47510   1.47341
           R3           1.34256   1.34348   1.34446   1.34534   1.34615
           R4           1.09251   1.09227   1.09184   1.09134   1.09084
           R5           1.34261   1.34349   1.34442   1.34540   1.34611
           R6           1.08707   1.08706   1.08707   1.08709   1.08710
           R7           1.08646   1.08634   1.08620   1.08604   1.08586
           R8           1.08708   1.08705   1.08707   1.08709   1.08709
           R9           1.08646   1.08634   1.08620   1.08603   1.08586
           A1         115.75911 115.73511 115.78675 115.81263 115.70050
           A2         119.02759 119.03408 119.02096 118.95054 118.80263
           A3         125.05117 125.04026 125.03383 125.13473 125.44949
           A4         115.75328 115.73792 115.79085 115.80824 115.70342
           A5         125.05327 125.04066 125.03195 125.13890 125.44788
           A6         119.02163 119.03232 119.01722 118.95153 118.80126
           A7         121.64665 121.57320 121.54561 121.59603 121.74499
           A8         121.53506 121.57712 121.60121 121.59377 121.53752
           A9         116.81534 116.84900 116.85318 116.80915 116.71329
           A10        121.64316 121.57190 121.54473 121.59498 121.74477
           A11        121.53646 121.57809 121.60269 121.59248 121.53900
           A12        116.81942 116.84914 116.85258 116.81148 116.71213
           D1         -70.47492 -59.84498 -50.69717 -42.55648 -34.90660
           D2         104.69346 115.08721 124.64028 133.72871 142.54587
           D3         104.83165 115.06788 124.66255 133.71474 142.54745
           D4         -79.99996 -69.99993 -60.00000 -50.00006 -40.00007
           D5         177.48873 176.74361 176.24441 176.00626 176.11415
           D6          -2.87711  -3.60549  -3.75749  -3.60725  -3.12434
           D7           2.32335   1.98525   1.02286  -0.15749  -1.26783
           D8        -178.04250-178.36385-178.97903-179.77100 179.49368
           D9           2.55172   1.95539   1.03122  -0.14674  -1.28039
           D10       -178.09319-178.35273-178.98549-179.76178 179.49013
           D11        177.57477 176.73388 176.23018 176.03120 176.10007
           D12         -3.07014  -3.57424  -3.78653  -3.58384  -3.12941
                          16        17        18        19
     Eigenvalues --    -0.96288  -0.96278  -0.96257  -0.96247
           R1           1.09034   1.08994   1.08961   1.08950
           R2           1.47278   1.47296   1.47348   1.47374
           R3           1.34668   1.34702   1.34724   1.34729
           R4           1.09034   1.08994   1.08961   1.08950
           R5           1.34669   1.34705   1.34725   1.34729
           R6           1.08705   1.08703   1.08696   1.08696
           R7           1.08571   1.08556   1.08550   1.08546
           R8           1.08706   1.08703   1.08696   1.08696
           R9           1.08571   1.08556   1.08551   1.08546
           A1         115.45106 115.13893 114.87268 114.76930
           A2         118.58019 118.31557 118.09756 118.01339
           A3         125.95461 126.54342 127.02969 127.21731
           A4         115.45055 115.13721 114.87202 114.77050
           A5         125.95456 126.54542 127.02865 127.21903
           A6         118.58060 118.31528 118.09925 118.01047
           A7         121.98591 122.27112 122.52109 122.61878
           A8         121.43721 121.32759 121.22015 121.18659
           A9         116.56987 116.39459 116.25609 116.19463
           A10        121.98657 122.26998 122.52200 122.61660
           A11        121.43662 121.32715 121.21950 121.18809
           A12        116.56967 116.39610 116.25580 116.19531
           D1         -27.20163 -18.92240  -9.78933   0.01934
           D2         151.39545 160.53787 170.10377-179.98810
           D3         151.40300 160.53986 170.10709-179.99244
           D4         -29.99991 -19.99987  -9.99981   0.00012
           D5         176.54948 177.36455 178.54821 179.96865
           D6          -2.44497  -1.65501  -0.83205  -0.02336
           D7          -2.01573  -2.08249  -1.34527  -0.01923
           D8         178.98982 178.89795 179.27447-180.01124
           D9          -2.00386  -2.07734  -1.34420  -0.02362
           D10        178.99241 178.89788 179.27237-180.00972
           D11        176.55358 177.36763 178.54585 179.96873
           D12         -2.45016  -1.65714  -0.83758  -0.01736
 GradGradGradGradGradGradGradGradGradGradGradGradGradGradGradGradGradGrad

                          Input orientation:                          
 ---------------------------------------------------------------------
 Center     Atomic      Atomic             Coordinates (Angstroms)
 Number     Number       Type             X           Y           Z
 ---------------------------------------------------------------------
      1          6           0        0.725782    0.127368    0.627163
      2          1           0        1.175384    0.206068    1.616440
      3          6           0       -0.725779   -0.127359    0.627128
      4          1           0       -1.175440   -0.206128    1.616377
      5          6           0       -1.528411   -0.268221   -0.445775
      6          1           0       -1.159437   -0.203099   -1.466118
      7          1           0       -2.591588   -0.454951   -0.331728
      8          6           0        1.528439    0.268213   -0.445730
      9          1           0        1.159437    0.203138   -1.466064
     10          1           0        2.591612    0.454970   -0.331692
 ---------------------------------------------------------------------
                    Distance matrix (angstroms):
                    1          2          3          4          5
     1  C    0.000000
     2  H    1.089498   0.000000
     3  C    1.473741   2.168947   0.000000
     4  H    2.168965   2.386688   1.089502   0.000000
     5  C    2.527661   3.433393   1.347286   2.093064   0.000000
     6  H    2.836385   3.888569   2.139036   3.082538   1.086960
     7  H    3.501929   4.292131   2.123197   2.421261   1.085459
     8  C    1.347292   2.093096   2.527647   3.433401   3.103561
     9  H    2.139017   3.082546   2.836321   3.888520   2.913364
    10  H    2.123217   2.421337   3.501932   4.292168   4.184568
                    6          7          8          9         10
     6  H    0.000000
     7  H    1.844269   0.000000
     8  C    2.913418   4.184565   0.000000
     9  H    2.354188   3.973661   1.086959   0.000000
    10  H    3.973707   5.262464   1.085458   1.844274   0.000000
 Stoichiometry    C4H6
 Framework group  C1[X(C4H6)]
 Deg. of freedom    24
 Full point group                 C1      NOp   1
 Largest Abelian subgroup         C1      NOp   1
 Largest concise Abelian subgroup C1      NOp   1
                         Standard orientation:                         
 ---------------------------------------------------------------------
 Center     Atomic      Atomic             Coordinates (Angstroms)
 Number     Number       Type             X           Y           Z
 ---------------------------------------------------------------------
      1          6           0        0.736877   -0.566686    0.000011
      2          1           0        1.193332   -1.555956   -0.000177
      3          6           0       -0.736864   -0.566675    0.000003
      4          1           0       -1.193356   -1.555932    0.000144
      5          6           0       -1.551781    0.506214   -0.000017
      6          1           0       -1.177121    1.526563    0.000347
      7          1           0       -2.631230    0.392149   -0.000178
      8          6           0        1.551781    0.506219    0.000001
      9          1           0        1.177067    1.526547   -0.000321
     10          1           0        2.631234    0.392200    0.000190
 ---------------------------------------------------------------------
 Rotational constants (GHZ):          21.2929002           5.5878574           4.4262774

 **********************************************************************

            Population analysis using the SCF Density.

 **********************************************************************

 Orbital symmetries:
       Occupied  (A) (A) (A) (A) (A) (A) (A) (A) (A) (A) (A) (A)
                 (A) (A) (A)
       Virtual   (A) (A) (A) (A) (A) (A) (A) (A) (A) (A) (A) (A)
                 (A) (A) (A) (A) (A) (A) (A) (A) (A) (A) (A) (A)
                 (A) (A) (A) (A) (A) (A) (A) (A) (A) (A) (A) (A)
                 (A) (A) (A) (A) (A) (A) (A) (A) (A) (A) (A) (A)
                 (A)
 The electronic state is 1-A.
 Alpha  occ. eigenvalues --  -10.20140 -10.20117 -10.18978 -10.18975  -0.81200
 Alpha  occ. eigenvalues --   -0.73843  -0.63002  -0.53796  -0.49985  -0.45050
 Alpha  occ. eigenvalues --   -0.42759  -0.37042  -0.35801  -0.32916  -0.23874
 Alpha virt. eigenvalues --   -0.05074   0.01384   0.02370   0.02995   0.05066
 Alpha virt. eigenvalues --    0.06043   0.06886   0.06906   0.09621   0.10026
 Alpha virt. eigenvalues --    0.10327   0.11049   0.11527   0.15192   0.15480
 Alpha virt. eigenvalues --    0.16251   0.16650   0.19916   0.20803   0.21898
 Alpha virt. eigenvalues --    0.24235   0.25782   0.29333   0.30744   0.32497
 Alpha virt. eigenvalues --    0.41601   0.44719   0.57700   0.64610   0.66344
 Alpha virt. eigenvalues --    0.70943   0.72159   0.72924   0.76183   0.77668
 Alpha virt. eigenvalues --    0.83601   0.87768   0.93495   0.96394   0.99738
 Alpha virt. eigenvalues --    1.01350   1.06390   1.08530   1.09702   1.17831
 Alpha virt. eigenvalues --    1.21725   1.27585   1.27839   1.50005
          Condensed to atoms (all electrons):
               1          2          3          4          5          6
     1  C    5.134418   0.296836   0.248651  -0.006165   0.051204   0.017902
     2  H    0.296836   0.550064  -0.006166  -0.005641  -0.010476   0.000050
     3  C    0.248651  -0.006166   5.134471   0.296831   0.471764  -0.106103
     4  H   -0.006165  -0.005641   0.296831   0.550067   0.013754   0.004196
     5  C    0.051204  -0.010476   0.471764   0.013754   5.140136   0.443614
     6  H    0.017902   0.000050  -0.106103   0.004196   0.443614   0.528317
     7  H    0.016109  -0.000139  -0.035051  -0.005982   0.372691  -0.033251
     8  C    0.471792   0.013750   0.051201  -0.010476  -0.056227  -0.018868
     9  H   -0.106099   0.004196   0.017904   0.000050  -0.018868   0.001991
    10  H   -0.035051  -0.005981   0.016111  -0.000139  -0.001501  -0.000039
               7          8          9         10
     1  C    0.016109   0.471792  -0.106099  -0.035051
     2  H   -0.000139   0.013750   0.004196  -0.005981
     3  C   -0.035051   0.051201   0.017904   0.016111
     4  H   -0.005982  -0.010476   0.000050  -0.000139
     5  C    0.372691  -0.056227  -0.018868  -0.001501
     6  H   -0.033251  -0.018868   0.001991  -0.000039
     7  H    0.517166  -0.001501  -0.000039   0.000000
     8  C   -0.001501   5.140123   0.443607   0.372690
     9  H   -0.000039   0.443607   0.528319  -0.033250
    10  H    0.000000   0.372690  -0.033250   0.517161
 Mulliken charges:
               1
     1  C   -0.089598
     2  H    0.163507
     3  C   -0.089612
     4  H    0.163506
     5  C   -0.406091
     6  H    0.162191
     7  H    0.169997
     8  C   -0.406091
     9  H    0.162190
    10  H    0.170000
 Sum of Mulliken charges =   0.00000
 Mulliken charges with hydrogens summed into heavy atoms:
               1
     1  C    0.073910
     3  C    0.073894
     5  C   -0.073903
     8  C   -0.073901
 Electronic spatial extent (au):  <R**2>=            312.4946
 Charge=              0.0000 electrons
 Dipole moment (field-independent basis, Debye):
    X=              0.0000    Y=             -0.0759    Z=              0.0000  Tot=              0.0759
 Quadrupole moment (field-independent basis, Debye-Ang):
   XX=            -23.6510   YY=            -23.0646   ZZ=            -29.6098
   XY=              0.0000   XZ=             -0.0001   YZ=              0.0001
 Traceless Quadrupole moment (field-independent basis, Debye-Ang):
   XX=              1.7908   YY=              2.3772   ZZ=             -4.1680
   XY=              0.0000   XZ=             -0.0001   YZ=              0.0001
 Octapole moment (field-independent basis, Debye-Ang**2):
  XXX=              0.0001  YYY=             -0.4268  ZZZ=              0.0000  XYY=             -0.0000
  XXY=             -0.1912  XXZ=              0.0002  XZZ=             -0.0000  YZZ=             -0.1904
  YYZ=             -0.0000  XYZ=             -0.0001
 Hexadecapole moment (field-independent basis, Debye-Ang**3):
 XXXX=           -278.3281 YYYY=           -100.5750 ZZZZ=            -39.1787 XXXY=              0.0007
 XXXZ=              0.0067 YYYX=             -0.0004 YYYZ=              0.0004 ZZZX=             -0.0003
 ZZZY=              0.0001 XXYY=            -67.3231 XXZZ=            -65.8227 YYZZ=            -25.9764
 XXYZ=              0.0003 YYXZ=             -0.0033 ZZXY=              0.0000
 N-N= 1.041450657987D+02 E-N=-5.689370031103D+02  KE= 1.549592879704D+02
 1\1\GINC-GADOLINIO\Scan\RB3LYP\6-31+G\C4H6\MASTER3\25-Apr-2019\0\\# op
 t=modredundant b3lyp/6-31+g geom=connectivity\\Title Card Required\\0,
 1\C,0.7257817699,0.1273677546,0.6271627688\H,1.1753841321,0.206067988,
 1.6164396856\C,-0.7257785282,-0.1273594661,0.62712758\H,-1.1754398008,
 -0.2061276366,1.6163769376\C,-1.5284107162,-0.2682206802,-0.4457751314
 \H,-1.1594368877,-0.2030986728,-1.4661180312\H,-2.5915880401,-0.454951
 1724,-0.331728343\C,1.5284391966,0.2682132844,-0.4457296713\H,1.159436
 533,0.203138359,-1.4660637053\H,2.5916123413,0.4549702421,-0.331692089
 9\\Version=EM64L-G16RevB.01\State=1-A\HF=-155.9684911,-155.968141,-155
 .967117,-155.9654967,-155.9634156,-155.9611103,-155.9589517,-155.95742
 ,-155.956853,-155.9572175,-155.9582233,-155.9595381,-155.9608636,-155.
 9619527,-155.9626372,-155.9628771,-155.9627812,-155.9625707,-155.96246
 8\RMSD=5.300e-09,7.225e-09,3.397e-09,5.996e-09,1.690e-09,4.102e-09,3.7
 12e-09,5.991e-09,5.105e-09,2.158e-09,4.336e-09,8.246e-09,6.189e-09,3.9
 01e-09,4.613e-09,9.255e-09,2.813e-09,9.168e-09,4.561e-09\PG=C01 [X(C4H
 6)]\\@


     SCHOPENHAUER'S LAW OF ENTROPY
 IF YOU PUT A SPOONFUL OF WINE IN A BARREL FULL
 OF SEWAGE, YOU GET SEWAGE.
 IF YOU PUT A SPOONFUL OF SEWAGE IN A BARREL FULL
 OF WINE, YOU GET SEWAGE.
 Job cpu time:       0 days  0 hours 25 minutes  9.4 seconds.
 Elapsed time:       0 days  0 hours 25 minutes  8.8 seconds.
 File lengths (MBytes):  RWF=      6 Int=      0 D2E=      0 Chk=      3 Scr=      1
 Normal termination of Gaussian 16 at Thu Apr 25 17:30:09 2019.
