10
Scan step 14     E=    -155.985618                                                                  
C          0.38111       -0.62970        0.52558
H          0.93036       -0.85719        1.44095
C         -0.38111        0.62970        0.52558
H         -0.93036        0.85719        1.44095
C         -0.38111        1.52499       -0.46851
H          0.20306        1.36825       -1.37194
H         -0.96425        2.43999       -0.41144
C          0.38111       -1.52499       -0.46851
H         -0.20306       -1.36825       -1.37194
H          0.96425       -2.43999       -0.41144
