10
Scan step 10     E=    -155.980576                                                                  
C          0.52944       -0.52100        0.40829
H          1.32276       -0.40038        1.14954
C         -0.52944        0.52100        0.40829
H         -1.32276        0.40038        1.14954
C         -0.52944        1.60751       -0.36614
H          0.25281        1.78433       -1.10046
H         -1.31917        2.35166       -0.30193
C          0.52944       -1.60751       -0.36614
H         -0.25281       -1.78433       -1.10046
H          1.31917       -2.35166       -0.30193
