FCHK created with read_scan from butadiene_scan.fchk
Scan      RB3LYP                                                      6-31G(d)  
Number of atoms                            I               10
Charge                                     I                0
Multiplicity                               I                1
Atomic numbers                             I   N=          10
           6           1           6           1           6           1
           1           6           1           1
Nuclear charges                            R   N=          10
  6.00000000E+00  1.00000000E+00  6.00000000E+00  1.00000000E+00  6.00000000E+00
  1.00000000E+00  1.00000000E+00  6.00000000E+00  1.00000000E+00  1.00000000E+00
Current cartesian coordinates              R   N=          30
  1.59448479E-01 -1.38075781E+00  1.06358348E+00  4.21558601E-01 -2.22586694E+00
  2.92319368E+00 -1.59448479E-01  1.38075781E+00  1.06358348E+00 -4.21558601E-01
  2.22586694E+00  2.92319368E+00 -1.59448479E-01  2.91617931E+00 -9.49708572E-01
  1.33186843E-01  2.22416282E+00 -2.86200621E+00 -4.38056838E-01  4.93879825E+00
 -7.44436925E-01  1.59448479E-01 -2.91617931E+00 -9.49708572E-01 -1.33186843E-01
 -2.22416282E+00 -2.86200621E+00  4.38056838E-01 -4.93879825E+00 -7.44436925E-01
Integer atomic weights                     I   N=          30
           0          -1           1           0          -2           2
           0           1           1           0           2           2
           0           2           0           0           2          -2
           0           4           0           0          -2           0
           0          -2          -2           0          -4           0
Real atomic weights                        R   N=          30
  1.59448479E-01 -1.38075781E+00  1.06358348E+00  4.21558601E-01 -2.22586694E+00
  2.92319368E+00 -1.59448479E-01  1.38075781E+00  1.06358348E+00 -4.21558601E-01
  2.22586694E+00  2.92319368E+00 -1.59448479E-01  2.91617931E+00 -9.49708572E-01
  1.33186843E-01  2.22416282E+00 -2.86200621E+00 -4.38056838E-01  4.93879825E+00
 -7.44436925E-01  1.59448479E-01 -2.91617931E+00 -9.49708572E-01 -1.33186843E-01
 -2.22416282E+00 -2.86200621E+00  4.38056838E-01 -4.93879825E+00 -7.44436925E-01
Total Energy                               R     -1.559860740000000E+02
Cartesian Gradient                         R   N=          30
 -9.43517238E-03 -1.58694212E-04  5.99158593E-04  2.04514635E-03 -7.33308921E-05
 -2.89945011E-04  9.43517238E-03  1.58694212E-04  5.99158593E-04 -2.04514635E-03
  7.33308921E-05 -2.89945011E-04 -2.04601583E-03 -4.41473800E-04 -2.26037201E-04
  7.35155094E-06 -3.95259755E-04 -6.88084896E-05 -5.66695292E-04  2.95989543E-05
 -1.43678920E-05  2.04601583E-03  4.41473800E-04 -2.26037201E-04 -7.35155094E-06
  3.95259755E-04 -6.88084896E-05  5.66695292E-04 -2.95989543E-05 -1.43678920E-05
