FCHK created with read_scan from butadiene_scan.fchk
Scan      RB3LYP                                                      6-31G(d)  
Number of atoms                            I               10
Charge                                     I                0
Multiplicity                               I                1
Atomic numbers                             I   N=          10
           6           1           6           1           6           1
           1           6           1           1
Nuclear charges                            R   N=          10
  6.00000000E+00  1.00000000E+00  6.00000000E+00  1.00000000E+00  6.00000000E+00
  1.00000000E+00  1.00000000E+00  6.00000000E+00  1.00000000E+00  1.00000000E+00
Current cartesian coordinates              R   N=          30
  1.13429209E+00 -7.84761189E-01  2.02441017E-01  2.93167751E+00  2.10110075E-01
  3.66500222E-01 -1.13429209E+00  7.84761189E-01  2.02441017E-01 -2.93167751E+00
 -2.10110075E-01  3.66500222E-01 -1.13429209E+00  3.29110335E+00 -1.60995444E-01
  6.15911675E-01  4.34856690E+00 -3.74184969E-01 -2.87703338E+00  4.37139722E+00
 -2.40988692E-01  1.13429209E+00 -3.29110335E+00 -1.60995444E-01 -6.15911675E-01
 -4.34856690E+00 -3.74184969E-01  2.87703338E+00 -4.37139722E+00 -2.40988692E-01
Integer atomic weights                     I   N=          30
           1           0           0           2           0           0
          -1           0           0          -2           0           0
          -1           3           0           0           4           0
          -2           4           0           1          -3           0
           0          -4           0           2          -4           0
Real atomic weights                        R   N=          30
  1.13429209E+00 -7.84761189E-01  2.02441017E-01  2.93167751E+00  2.10110075E-01
  3.66500222E-01 -1.13429209E+00  7.84761189E-01  2.02441017E-01 -2.93167751E+00
 -2.10110075E-01  3.66500222E-01 -1.13429209E+00  3.29110335E+00 -1.60995444E-01
  6.15911675E-01  4.34856690E+00 -3.74184969E-01 -2.87703338E+00  4.37139722E+00
 -2.40988692E-01  1.13429209E+00 -3.29110335E+00 -1.60995444E-01 -6.15911675E-01
 -4.34856690E+00 -3.74184969E-01  2.87703338E+00 -4.37139722E+00 -2.40988692E-01
Total Energy                               R     -1.559907770000000E+02
Cartesian Gradient                         R   N=          30
 -1.42330120E-03 -3.82173296E-05  6.24686379E-03  1.43800826E-04 -2.47625699E-04
 -1.98245410E-03  1.42330120E-03  3.82173296E-05  6.24686379E-03 -1.43800826E-04
  2.47625699E-04 -1.98245410E-03 -5.87212320E-04 -3.52418355E-04 -3.76955011E-03
  2.20396689E-05 -1.01751612E-04 -5.29483129E-04  1.24098426E-05  7.21919244E-05
  3.46235486E-05  5.87212320E-04  3.52418355E-04 -3.76955011E-03 -2.20396689E-05
  1.01751612E-04 -5.29483129E-04 -1.24098426E-05 -7.21919244E-05  3.46235486E-05
