FCHK created with read_scan from butadiene_scan.fchk
Scan      RB3LYP                                                      6-31G(d)  
Number of atoms                            I               10
Charge                                     I                0
Multiplicity                               I                1
Atomic numbers                             I   N=          10
           6           1           6           1           6           1
           1           6           1           1
Nuclear charges                            R   N=          10
  6.00000000E+00  1.00000000E+00  6.00000000E+00  1.00000000E+00  6.00000000E+00
  1.00000000E+00  1.00000000E+00  6.00000000E+00  1.00000000E+00  1.00000000E+00
Current cartesian coordinates              R   N=          30
  1.07726037E+00 -9.00439686E-01  6.39332486E-01  2.79186833E+00 -2.92635479E-01
  1.61073321E+00 -1.07726037E+00  9.00439686E-01  6.39332486E-01 -2.79186833E+00
  2.92635479E-01  1.61073321E+00 -1.07726037E+00  3.12290133E+00 -5.54677031E-01
  5.68079382E-01  3.80088741E+00 -1.58364474E+00 -2.72275765E+00  4.35161691E+00
 -5.35021201E-01  1.07726037E+00 -3.12290133E+00 -5.54677031E-01 -5.68079382E-01
 -3.80088741E+00 -1.58364474E+00  2.72275765E+00 -4.35161691E+00 -5.35021201E-01
Integer atomic weights                     I   N=          30
           1           0           0           2           0           1
          -1           0           0          -2           0           1
          -1           3           0           0           3          -1
          -2           4           0           1          -3           0
           0          -3          -1           2          -4           0
Real atomic weights                        R   N=          30
  1.07726037E+00 -9.00439686E-01  6.39332486E-01  2.79186833E+00 -2.92635479E-01
  1.61073321E+00 -1.07726037E+00  9.00439686E-01  6.39332486E-01 -2.79186833E+00
  2.92635479E-01  1.61073321E+00 -1.07726037E+00  3.12290133E+00 -5.54677031E-01
  5.68079382E-01  3.80088741E+00 -1.58364474E+00 -2.72275765E+00  4.35161691E+00
 -5.35021201E-01  1.07726037E+00 -3.12290133E+00 -5.54677031E-01 -5.68079382E-01
 -3.80088741E+00 -1.58364474E+00  2.72275765E+00 -4.35161691E+00 -5.35021201E-01
Total Energy                               R     -1.559806380000000E+02
Cartesian Gradient                         R   N=          30
 -7.75994381E-03 -6.01881602E-03  8.91324471E-03  6.44503512E-04  4.80076603E-04
 -2.75805055E-03  7.75994381E-03  6.01881602E-03  8.91324471E-03 -6.44503512E-04
 -4.80076603E-04 -2.75805055E-03 -2.75586340E-03 -2.69275770E-03 -5.54872775E-03
 -2.16274935E-05 -1.53293229E-04 -2.33100211E-04 -3.37469967E-05 -1.06150092E-04
 -3.73366194E-04  2.75586340E-03  2.69275770E-03 -5.54872775E-03  2.16274935E-05
  1.53293229E-04 -2.33100211E-04  3.37469967E-05  1.06150092E-04 -3.73366194E-04
