FCHK created with read_scan from butadiene_scan.fchk
Scan      RB3LYP                                                      6-31G(d)  
Number of atoms                            I               10
Charge                                     I                0
Multiplicity                               I                1
Atomic numbers                             I   N=          10
           6           1           6           1           6           1
           1           6           1           1
Nuclear charges                            R   N=          10
  6.00000000E+00  1.00000000E+00  6.00000000E+00  1.00000000E+00  6.00000000E+00
  1.00000000E+00  1.00000000E+00  6.00000000E+00  1.00000000E+00  1.00000000E+00
Current cartesian coordinates              R   N=          30
  1.13073722E+00 -7.95467398E-01  3.00835338E-01  2.92974052E+00  1.76126452E-01
  5.60574126E-01 -1.13073722E+00  7.95467398E-01  3.00835338E-01 -2.92974052E+00
 -1.76126452E-01  5.60574126E-01 -1.13073722E+00  3.26818117E+00 -2.41066669E-01
  6.16680301E-01  4.29993526E+00 -5.71458445E-01 -2.87147344E+00  4.34974273E+00
 -3.47727699E-01  1.13073722E+00 -3.26818117E+00 -2.41066669E-01 -6.16680301E-01
 -4.29993526E+00 -5.71458445E-01  2.87147344E+00 -4.34974273E+00 -3.47727699E-01
Integer atomic weights                     I   N=          30
           1           0           0           2           0           0
          -1           0           0          -2           0           0
          -1           3           0           0           4           0
          -2           4           0           1          -3           0
           0          -4           0           2          -4           0
Real atomic weights                        R   N=          30
  1.13073722E+00 -7.95467398E-01  3.00835338E-01  2.92974052E+00  1.76126452E-01
  5.60574126E-01 -1.13073722E+00  7.95467398E-01  3.00835338E-01 -2.92974052E+00
 -1.76126452E-01  5.60574126E-01 -1.13073722E+00  3.26818117E+00 -2.41066669E-01
  6.16680301E-01  4.29993526E+00 -5.71458445E-01 -2.87147344E+00  4.34974273E+00
 -3.47727699E-01  1.13073722E+00 -3.26818117E+00 -2.41066669E-01 -6.16680301E-01
 -4.29993526E+00 -5.71458445E-01  2.87147344E+00 -4.34974273E+00 -3.47727699E-01
Total Energy                               R     -1.559891420000000E+02
Cartesian Gradient                         R   N=          30
 -2.78686660E-03 -9.76534051E-04  7.98916296E-03  2.10291380E-04 -2.84818115E-04
 -2.09606873E-03  2.78686660E-03  9.76534051E-04  7.98916296E-03 -2.10291380E-04
  2.84818115E-04 -2.09606873E-03 -1.09951734E-03 -9.63701348E-04 -5.38063627E-03
  1.14290293E-05 -1.66296359E-04 -4.85835817E-04  2.91032688E-05  7.68559937E-05
 -2.66221453E-05  1.09951734E-03  9.63701348E-04 -5.38063627E-03 -1.14290293E-05
  1.66296359E-04 -4.85835817E-04 -2.91032688E-05 -7.68559937E-05 -2.66221453E-05
