FCHK created with read_scan from butadiene_scan.fchk
Scan      RB3LYP                                                      6-31G(d)  
Number of atoms                            I               10
Charge                                     I                0
Multiplicity                               I                1
Atomic numbers                             I   N=          10
           6           1           6           1           6           1
           1           6           1           1
Nuclear charges                            R   N=          10
  6.00000000E+00  1.00000000E+00  6.00000000E+00  1.00000000E+00  6.00000000E+00
  1.00000000E+00  1.00000000E+00  6.00000000E+00  1.00000000E+00  1.00000000E+00
Current cartesian coordinates              R   N=          30
  7.20186671E-01 -1.18996970E+00  9.93200840E-01  1.75813148E+00 -1.61984550E+00
  2.72300984E+00 -7.20186671E-01  1.18996970E+00  9.93200840E-01 -1.75813148E+00
  1.61984550E+00  2.72300984E+00 -7.20186671E-01  2.88180578E+00 -8.85353451E-01
  3.83723713E-01  2.58561471E+00 -2.59258468E+00 -1.82216701E+00  4.61091701E+00
 -7.77509493E-01  7.20186671E-01 -2.88180578E+00 -8.85353451E-01 -3.83723713E-01
 -2.58561471E+00 -2.59258468E+00  1.82216701E+00 -4.61091701E+00 -7.77509493E-01
Integer atomic weights                     I   N=          30
           0          -1           0           1          -1           2
           0           1           0          -1           1           2
           0           2           0           0           2          -2
          -1           4           0           0          -2           0
           0          -2          -2           1          -4           0
Real atomic weights                        R   N=          30
  7.20186671E-01 -1.18996970E+00  9.93200840E-01  1.75813148E+00 -1.61984550E+00
  2.72300984E+00 -7.20186671E-01  1.18996970E+00  9.93200840E-01 -1.75813148E+00
  1.61984550E+00  2.72300984E+00 -7.20186671E-01  2.88180578E+00 -8.85353451E-01
  3.83723713E-01  2.58561471E+00 -2.59258468E+00 -1.82216701E+00  4.61091701E+00
 -7.77509493E-01  7.20186671E-01 -2.88180578E+00 -8.85353451E-01 -3.83723713E-01
 -2.58561471E+00 -2.59258468E+00  1.82216701E+00 -4.61091701E+00 -7.77509493E-01
Total Energy                               R     -1.559856180000000E+02
Cartesian Gradient                         R   N=          30
 -5.90495021E-04 -1.41330936E-03  2.16581766E-05  1.77002297E-03  1.31444124E-03
 -6.73435872E-04  5.90495021E-04  1.41330936E-03  2.16581766E-05 -1.77002297E-03
 -1.31444124E-03 -6.73435872E-04  1.72230102E-03  9.16923453E-04  1.10787739E-03
 -3.83061766E-04 -2.99950050E-04 -3.42996771E-04 -2.49476895E-04 -7.24662514E-05
 -1.13102921E-04 -1.72230102E-03 -9.16923453E-04  1.10787739E-03  3.83061766E-04
  2.99950050E-04 -3.42996771E-04  2.49476895E-04  7.24662514E-05 -1.13102921E-04
