Butadiene scan                                                          
Scan      RB3LYP                                                      6-31G(d)            
Number of atoms                            I               10
Info1-9                                    I   N=           9
          30          30           0           0           0         110
           8          18        -502
Full Title                                 C   N=           2
Butadiene scan          
Route                                      C   N=           5
# opt=modredundant b3lyp/6-31g* geom=connectivity           
Charge                                     I                0
Multiplicity                               I                1
Number of electrons                        I               30
Number of alpha electrons                  I               15
Number of beta electrons                   I               15
Number of basis functions                  I               72
Number of independent functions            I               72
Number of point charges in /Mol/           I                0
Number of translation vectors              I                0
Atomic numbers                             I   N=          10
           6           1           6           1           6           1
           1           6           1           1
Nuclear charges                            R   N=          10
  6.00000000E+00  1.00000000E+00  6.00000000E+00  1.00000000E+00  6.00000000E+00
  1.00000000E+00  1.00000000E+00  6.00000000E+00  1.00000000E+00  1.00000000E+00
Current cartesian coordinates              R   N=          30
 -7.61965694E-07 -1.39020875E+00  1.06430345E+00 -2.88789792E-04 -2.25592192E+00
  2.93261656E+00  7.61965694E-07  1.39020875E+00  1.06430345E+00  2.88789792E-04
  2.25592192E+00  2.93261656E+00 -7.61965694E-07  2.92315947E+00 -9.51017633E-01
  9.20812040E-04  2.21284528E+00 -2.87894415E+00 -4.13279685E-04  4.96353848E+00
 -7.33387321E-01  7.61965693E-07 -2.92315947E+00 -9.51017633E-01 -9.20812040E-04
 -2.21284528E+00 -2.87894415E+00  4.13279685E-04 -4.96353848E+00 -7.33387321E-01
Number of symbols in /Mol/                 I                0
Force Field                                I                0
Atom Types                                 C   N=          10
                                                            
                                                            
Int Atom Types                             I   N=          10
           0           0           0           0           0           0
           0           0           0           0
MM charges                                 R   N=          10
  0.00000000E+00  0.00000000E+00  0.00000000E+00  0.00000000E+00  0.00000000E+00
  0.00000000E+00  0.00000000E+00  0.00000000E+00  0.00000000E+00  0.00000000E+00
Integer atomic weights                     I   N=          10
          12           1          12           1          12           1
           1          12           1           1
Real atomic weights                        R   N=          10
  1.20000000E+01  1.00782504E+00  1.20000000E+01  1.00782504E+00  1.20000000E+01
  1.00782504E+00  1.00782504E+00  1.20000000E+01  1.00782504E+00  1.00782504E+00
Atom fragment info                         I   N=          10
           0           0           0           0           0           0
           0           0           0           0
Atom residue num                           I   N=          10
           0           0           0           0           0           0
           0           0           0           0
Nuclear spins                              I   N=          10
           0           1           0           1           0           1
           1           0           1           1
Nuclear ZEff                               R   N=          10
 -3.60000000E+00 -1.00000000E+00 -3.60000000E+00 -1.00000000E+00 -3.60000000E+00
 -1.00000000E+00 -1.00000000E+00 -3.60000000E+00 -1.00000000E+00 -1.00000000E+00
Nuclear ZNuc                               R   N=          10
  6.00000000E+00  1.00000000E+00  6.00000000E+00  1.00000000E+00  6.00000000E+00
  1.00000000E+00  1.00000000E+00  6.00000000E+00  1.00000000E+00  1.00000000E+00
Nuclear QMom                               R   N=          10
  0.00000000E+00  0.00000000E+00  0.00000000E+00  0.00000000E+00  0.00000000E+00
  0.00000000E+00  0.00000000E+00  0.00000000E+00  0.00000000E+00  0.00000000E+00
Nuclear GFac                               R   N=          10
  0.00000000E+00  2.79284600E+00  0.00000000E+00  2.79284600E+00  0.00000000E+00
  2.79284600E+00  2.79284600E+00  0.00000000E+00  2.79284600E+00  2.79284600E+00
MicOpt                                     I   N=          10
          -1          -1          -1          -1          -1          -1
          -1          -1          -1          -1
Number of residues                         I                0
Number of secondary structures             I                0
Redundant internal dimensions              I   N=           4
          33           9          12          12
Redundant internal coordinate indices      I   N=         132
           1           2           0           0           1           3
           0           0           1           8           0           0
           3           4           0           0           3           5
           0           0           5           6           0           0
           5           7           0           0           8           9
           0           0           8          10           0           0
           2           1           3           0           2           1
           8           0           3           1           8           0
           1           3           4           0           1           3
           5           0           4           3           5           0
           3           5           6           0           3           5
           7           0           6           5           7           0
           1           8           9           0           1           8
          10           0           9           8          10           0
           2           1           3           4           2           1
           3           5           8           1           3           4
           8           1           3           5           2           1
           8           9           2           1           8          10
           3           1           8           9           3           1
           8          10           1           3           5           6
           1           3           5           7           4           3
           5           6           4           3           5           7
Redundant internal coordinates             R   N=          33
  2.05913896E+00  2.78041751E+00  2.53208550E+00  2.05913896E+00  2.53208550E+00
  2.05461621E+00  2.05195263E+00  2.05461621E+00  2.05195263E+00  2.00470983E+00
  2.05739783E+00  2.22107764E+00  2.00470983E+00  2.22107764E+00  2.05739783E+00
  2.13830925E+00  2.11481767E+00  2.03005835E+00  2.13830925E+00  2.11481767E+00
  2.03005835E+00  3.07821348E-04 -3.14143757E+00 -3.14143757E+00  2.34616405E-06
  3.14090242E+00 -3.92519698E-04 -5.33452247E-04  3.14135691E+00 -5.33452248E-04
  3.14135691E+00  3.14090242E+00 -3.92519697E-04
ZRed-IntVec                                I   N=          33
           0           0           0           0           0           0
           0           0           0           0           0           0
           0           0           0           0           0           0
           0           0           0           0           0           0
       -1019           0           0           0           0           0
           0           0           0
ZRed-FPVec                                 R   N=          33
  0.00000000E+00  0.00000000E+00  0.00000000E+00  0.00000000E+00  0.00000000E+00
  0.00000000E+00  0.00000000E+00  0.00000000E+00  0.00000000E+00  0.00000000E+00
  0.00000000E+00  0.00000000E+00  0.00000000E+00  0.00000000E+00  0.00000000E+00
  0.00000000E+00  0.00000000E+00  0.00000000E+00  0.00000000E+00  0.00000000E+00
  0.00000000E+00  0.00000000E+00  0.00000000E+00  0.00000000E+00  1.74532925E-01
  0.00000000E+00  0.00000000E+00  0.00000000E+00  0.00000000E+00  0.00000000E+00
  0.00000000E+00  0.00000000E+00  0.00000000E+00
ZRed-Constraint1                           R   N=          33
  2.06069245E+00  2.75426318E+00  2.53328709E+00  2.06069245E+00  2.53328709E+00
  2.05587243E+00  2.05186441E+00  2.05587243E+00  2.05186441E+00  2.02887878E+00
  2.08466764E+00  2.16963889E+00  2.02887878E+00  2.16963889E+00  2.08466764E+00
  2.12137689E+00  2.12636193E+00  2.03544648E+00  2.12137689E+00  2.12636193E+00
  2.03544648E+00  3.14159265E+00  0.00000000E+00  0.00000000E+00  6.28318531E+00
  3.14159265E+00  0.00000000E+00  0.00000000E+00  3.14159265E+00  0.00000000E+00
  3.14159265E+00  3.14159265E+00  0.00000000E+00
ZRed-Constraint2                           R   N=          33
  0.00000000E+00  0.00000000E+00  0.00000000E+00  0.00000000E+00  0.00000000E+00
  0.00000000E+00  0.00000000E+00  0.00000000E+00  0.00000000E+00  0.00000000E+00
  0.00000000E+00  0.00000000E+00  0.00000000E+00  0.00000000E+00  0.00000000E+00
  0.00000000E+00  0.00000000E+00  0.00000000E+00  0.00000000E+00  0.00000000E+00
  0.00000000E+00  0.00000000E+00  0.00000000E+00  0.00000000E+00  3.14159265E+00
  0.00000000E+00  0.00000000E+00  0.00000000E+00  0.00000000E+00  0.00000000E+00
  0.00000000E+00  0.00000000E+00  0.00000000E+00
SymInf integers                            I   N=          26
           2           2           1           1           1          -1
          -1           1           0           0           0           0
           0           0           0           0           0           0
           0           0           0           0           0           0
           0           0
RotTr to input orientation                 R   N=          12
 -9.97174898E-01 -7.51147262E-02 -3.10742809E-09  7.51147262E-02 -9.97174898E-01
 -4.77152113E-10 -3.06280814E-09 -7.09217717E-10  1.00000000E+00 -9.38703939E-10
  2.82295994E-10  1.13285824E-01
Number of contracted shells                I               28
Number of primitive shells                 I               68
Pure/Cartesian d shells                    I                1
Pure/Cartesian f shells                    I                0
Highest angular momentum                   I                2
Largest degree of contraction              I                6
Shell types                                I   N=          28
           0          -1          -1           2           0           0
           0          -1          -1           2           0           0
           0          -1          -1           2           0           0
           0           0           0          -1          -1           2
           0           0           0           0
Number of primitives per shell             I   N=          28
           6           3           1           1           3           1
           6           3           1           1           3           1
           6           3           1           1           3           1
           3           1           6           3           1           1
           3           1           3           1
Shell to atom map                          I   N=          28
           1           1           1           1           2           2
           3           3           3           3           4           4
           5           5           5           5           6           6
           7           7           8           8           8           8
           9           9          10          10
Primitive exponents                        R   N=          68
  3.04752488E+03  4.57369518E+02  1.03948685E+02  2.92101553E+01  9.28666296E+00
  3.16392696E+00  7.86827235E+00  1.88128854E+00  5.44249258E-01  1.68714478E-01
  8.00000000E-01  1.87311370E+01  2.82539436E+00  6.40121692E-01  1.61277759E-01
  3.04752488E+03  4.57369518E+02  1.03948685E+02  2.92101553E+01  9.28666296E+00
  3.16392696E+00  7.86827235E+00  1.88128854E+00  5.44249258E-01  1.68714478E-01
  8.00000000E-01  1.87311370E+01  2.82539436E+00  6.40121692E-01  1.61277759E-01
  3.04752488E+03  4.57369518E+02  1.03948685E+02  2.92101553E+01  9.28666296E+00
  3.16392696E+00  7.86827235E+00  1.88128854E+00  5.44249258E-01  1.68714478E-01
  8.00000000E-01  1.87311370E+01  2.82539436E+00  6.40121692E-01  1.61277759E-01
  1.87311370E+01  2.82539436E+00  6.40121692E-01  1.61277759E-01  3.04752488E+03
  4.57369518E+02  1.03948685E+02  2.92101553E+01  9.28666296E+00  3.16392696E+00
  7.86827235E+00  1.88128854E+00  5.44249258E-01  1.68714478E-01  8.00000000E-01
  1.87311370E+01  2.82539436E+00  6.40121692E-01  1.61277759E-01  1.87311370E+01
  2.82539436E+00  6.40121692E-01  1.61277759E-01
Contraction coefficients                   R   N=          68
  1.83473713E-03  1.40373228E-02  6.88426223E-02  2.32184443E-01  4.67941348E-01
  3.62311985E-01 -1.19332420E-01 -1.60854152E-01  1.14345644E+00  1.00000000E+00
  1.00000000E+00  3.34946043E-02  2.34726953E-01  8.13757326E-01  1.00000000E+00
  1.83473713E-03  1.40373228E-02  6.88426223E-02  2.32184443E-01  4.67941348E-01
  3.62311985E-01 -1.19332420E-01 -1.60854152E-01  1.14345644E+00  1.00000000E+00
  1.00000000E+00  3.34946043E-02  2.34726953E-01  8.13757326E-01  1.00000000E+00
  1.83473713E-03  1.40373228E-02  6.88426223E-02  2.32184443E-01  4.67941348E-01
  3.62311985E-01 -1.19332420E-01 -1.60854152E-01  1.14345644E+00  1.00000000E+00
  1.00000000E+00  3.34946043E-02  2.34726953E-01  8.13757326E-01  1.00000000E+00
  3.34946043E-02  2.34726953E-01  8.13757326E-01  1.00000000E+00  1.83473713E-03
  1.40373228E-02  6.88426223E-02  2.32184443E-01  4.67941348E-01  3.62311985E-01
 -1.19332420E-01 -1.60854152E-01  1.14345644E+00  1.00000000E+00  1.00000000E+00
  3.34946043E-02  2.34726953E-01  8.13757326E-01  1.00000000E+00  3.34946043E-02
  2.34726953E-01  8.13757326E-01  1.00000000E+00
P(S=P) Contraction coefficients            R   N=          68
  0.00000000E+00  0.00000000E+00  0.00000000E+00  0.00000000E+00  0.00000000E+00
  0.00000000E+00  6.89990666E-02  3.16423961E-01  7.44308291E-01  1.00000000E+00
  0.00000000E+00  0.00000000E+00  0.00000000E+00  0.00000000E+00  0.00000000E+00
  0.00000000E+00  0.00000000E+00  0.00000000E+00  0.00000000E+00  0.00000000E+00
  0.00000000E+00  6.89990666E-02  3.16423961E-01  7.44308291E-01  1.00000000E+00
  0.00000000E+00  0.00000000E+00  0.00000000E+00  0.00000000E+00  0.00000000E+00
  0.00000000E+00  0.00000000E+00  0.00000000E+00  0.00000000E+00  0.00000000E+00
  0.00000000E+00  6.89990666E-02  3.16423961E-01  7.44308291E-01  1.00000000E+00
  0.00000000E+00  0.00000000E+00  0.00000000E+00  0.00000000E+00  0.00000000E+00
  0.00000000E+00  0.00000000E+00  0.00000000E+00  0.00000000E+00  0.00000000E+00
  0.00000000E+00  0.00000000E+00  0.00000000E+00  0.00000000E+00  0.00000000E+00
  6.89990666E-02  3.16423961E-01  7.44308291E-01  1.00000000E+00  0.00000000E+00
  0.00000000E+00  0.00000000E+00  0.00000000E+00  0.00000000E+00  0.00000000E+00
  0.00000000E+00  0.00000000E+00  0.00000000E+00
Coordinates of each shell                  R   N=          84
 -7.61965694E-07 -1.39020875E+00  1.06430345E+00 -7.61965694E-07 -1.39020875E+00
  1.06430345E+00 -7.61965694E-07 -1.39020875E+00  1.06430345E+00 -7.61965694E-07
 -1.39020875E+00  1.06430345E+00 -2.88789792E-04 -2.25592192E+00  2.93261656E+00
 -2.88789792E-04 -2.25592192E+00  2.93261656E+00  7.61965694E-07  1.39020875E+00
  1.06430345E+00  7.61965694E-07  1.39020875E+00  1.06430345E+00  7.61965694E-07
  1.39020875E+00  1.06430345E+00  7.61965694E-07  1.39020875E+00  1.06430345E+00
  2.88789792E-04  2.25592192E+00  2.93261656E+00  2.88789792E-04  2.25592192E+00
  2.93261656E+00 -7.61965694E-07  2.92315947E+00 -9.51017633E-01 -7.61965694E-07
  2.92315947E+00 -9.51017633E-01 -7.61965694E-07  2.92315947E+00 -9.51017633E-01
 -7.61965694E-07  2.92315947E+00 -9.51017633E-01  9.20812040E-04  2.21284528E+00
 -2.87894415E+00  9.20812040E-04  2.21284528E+00 -2.87894415E+00 -4.13279685E-04
  4.96353848E+00 -7.33387321E-01 -4.13279685E-04  4.96353848E+00 -7.33387321E-01
  7.61965694E-07 -2.92315947E+00 -9.51017633E-01  7.61965694E-07 -2.92315947E+00
 -9.51017633E-01  7.61965694E-07 -2.92315947E+00 -9.51017633E-01  7.61965694E-07
 -2.92315947E+00 -9.51017633E-01 -9.20812040E-04 -2.21284528E+00 -2.87894415E+00
 -9.20812040E-04 -2.21284528E+00 -2.87894415E+00  4.13279685E-04 -4.96353848E+00
 -7.33387321E-01  4.13279685E-04 -4.96353848E+00 -7.33387321E-01
Num ILSW                                   I              100
ILSW                                       I   N=         100
           0           1           0           1           2           0
           0           0           0           0         402          -1
           5           0           0           0           2           0
           0           0           1           0           1           0
           1           0           0           0           0           0
           0           0      100000           0          -1           0
           0           0           0           0           0           0
           0           0           0           1           0           0
           0 -2000000000           1           0           0           0
           0           0           4          52           0           0
           0           0           5           0           0           0
           0           0           0           0           0           1
           0           0           0           0           0           0
           0           0           0           0           0           0
           0           0           0           0           0           0
           0           0           0           0           0           0
           0           0           0           0
Num RLSW                                   I               52
RLSW                                       R   N=          52
  8.00000000E-01  7.20000000E-01  1.00000000E+00  8.10000000E-01  2.00000000E-01
  0.00000000E+00  0.00000000E+00  1.00000000E+00  0.00000000E+00  0.00000000E+00
  0.00000000E+00  0.00000000E+00  1.00000000E+00  0.00000000E+00  0.00000000E+00
  0.00000000E+00  0.00000000E+00  1.00000000E+00  0.00000000E+00  0.00000000E+00
  0.00000000E+00  0.00000000E+00  1.00000000E+00  0.00000000E+00  0.00000000E+00
  0.00000000E+00  0.00000000E+00  1.00000000E+00  0.00000000E+00  0.00000000E+00
  0.00000000E+00  0.00000000E+00  1.00000000E+00  0.00000000E+00  0.00000000E+00
  0.00000000E+00  0.00000000E+00  0.00000000E+00  1.00000000E+00  1.00000000E+00
  0.00000000E+00  1.00000000E+00  0.00000000E+00  0.00000000E+00  0.00000000E+00
  0.00000000E+00  0.00000000E+00  0.00000000E+00  0.00000000E+00  0.00000000E+00
  0.00000000E+00  0.00000000E+00
MxBond                                     I                3
NBond                                      I   N=          10
           3           1           3           1           3           1
           1           3           1           1
IBond                                      I   N=          30
           2           3           8           1           0           0
           1           4           5           3           0           0
           3           6           7           5           0           0
           5           0           0           1           9          10
           8           0           0           8           0           0
RBond                                      R   N=          30
  1.00000000E+00  1.00000000E+00  2.00000000E+00  1.00000000E+00  0.00000000E+00
  0.00000000E+00  1.00000000E+00  1.00000000E+00  2.00000000E+00  1.00000000E+00
  0.00000000E+00  0.00000000E+00  2.00000000E+00  1.00000000E+00  1.00000000E+00
  1.00000000E+00  0.00000000E+00  0.00000000E+00  1.00000000E+00  0.00000000E+00
  0.00000000E+00  2.00000000E+00  1.00000000E+00  1.00000000E+00  1.00000000E+00
  0.00000000E+00  0.00000000E+00  1.00000000E+00  0.00000000E+00  0.00000000E+00
Virial Ratio                               R      2.010310084533154E+00
SCF Energy                                 R     -1.559859512716752E+02
Total Energy                               R     -1.559859512716752E+02
RMS Force                                  R      1.577228923068741E-05
RMS Density                                R      2.790315592336207E-09
Job Status                                 I                1
Nuclear derivative order                   I                1
External E-field                           R   N=          35
  0.00000000E+00  0.00000000E+00  0.00000000E+00  0.00000000E+00  0.00000000E+00
  0.00000000E+00  0.00000000E+00  0.00000000E+00  0.00000000E+00  0.00000000E+00
  0.00000000E+00  0.00000000E+00  0.00000000E+00  0.00000000E+00  0.00000000E+00
  0.00000000E+00  0.00000000E+00  0.00000000E+00  0.00000000E+00  0.00000000E+00
  0.00000000E+00  0.00000000E+00  0.00000000E+00  0.00000000E+00  0.00000000E+00
  0.00000000E+00  0.00000000E+00  0.00000000E+00  0.00000000E+00  0.00000000E+00
  0.00000000E+00  0.00000000E+00  0.00000000E+00  0.00000000E+00  0.00000000E+00
IOpCl                                      I                0
IROHF                                      I                0
Alpha Orbital Energies                     R   N=          72
 -1.01920116E+01 -1.01917010E+01 -1.01828198E+01 -1.01828158E+01 -7.98251613E-01
 -7.24712882E-01 -6.18229798E-01 -5.26624421E-01 -4.87558418E-01 -4.36557205E-01
 -4.16157766E-01 -3.59786568E-01 -3.47864343E-01 -3.17080806E-01 -2.27325935E-01
 -3.01496339E-02  9.64268776E-02  1.00836625E-01  1.14721890E-01  1.53164613E-01
  1.92055281E-01  2.01656477E-01  2.10043037E-01  3.06197723E-01  3.40597147E-01
  4.32553100E-01  4.67282298E-01  5.27436799E-01  5.32185456E-01  5.86777679E-01
  5.95411009E-01  6.26907098E-01  6.41003626E-01  6.77196502E-01  6.89578456E-01
  6.93256203E-01  8.33759894E-01  8.60351126E-01  8.81059466E-01  8.93522768E-01
  9.30207618E-01  9.56158875E-01  9.86798972E-01  1.05511592E+00  1.07748570E+00
  1.18331454E+00  1.23852854E+00  1.34035832E+00  1.45806026E+00  1.48272231E+00
  1.52120413E+00  1.65585726E+00  1.75242179E+00  1.77714627E+00  1.87983353E+00
  1.96073106E+00  2.00786346E+00  2.10516037E+00  2.16323319E+00  2.21989614E+00
  2.25179389E+00  2.27871775E+00  2.54178967E+00  2.54998010E+00  2.55360807E+00
  2.62114735E+00  2.86561246E+00  3.07915078E+00  4.06618618E+00  4.14857171E+00
  4.20071396E+00  4.48262990E+00
Alpha MO coefficients                      R   N=        5184
  7.01164343E-01  3.46194342E-02 -2.70928618E-08 -1.15264134E-04  3.44735984E-06
 -7.29086836E-03  2.07306451E-07  7.78238598E-04  5.42800438E-04 -6.89586311E-03
 -6.89753667E-03 -6.64426214E-03  1.87154861E-08 -3.72942353E-08  8.45491983E-05
 -2.77095033E-04  1.38238235E-03  7.01164343E-01  3.46194342E-02  2.70928618E-08
  1.15264134E-04  3.44735984E-06 -7.29086836E-03 -2.07306451E-07 -7.78238598E-04
  5.42800438E-04 -6.89586311E-03 -6.89753667E-03 -6.64426214E-03  1.87154861E-08
  3.72942353E-08 -8.45491983E-05 -2.77095033E-04  1.38238235E-03  3.16255962E-02
  1.11745753E-03 -3.24937142E-09  2.16866023E-04 -2.08697376E-04  2.75314699E-03
  1.38860634E-07 -1.12095529E-03  8.53966551E-04 -4.42685058E-04 -4.30042840E-04
 -4.56785741E-04 -2.34240711E-08 -1.82798897E-08  1.30440549E-05 -1.10302802E-04
 -9.93428343E-05 -3.06833076E-05  2.66311140E-04  3.16255962E-02  1.11745753E-03
  3.24937142E-09 -2.16866023E-04 -2.08697376E-04  2.75314699E-03 -1.38860634E-07
  1.12095529E-03  8.53966551E-04 -4.42685058E-04 -4.30042840E-04 -4.56785741E-04
 -2.34240711E-08  1.82798897E-08 -1.30440549E-05 -1.10302802E-04 -9.93428343E-05
 -3.06833076E-05  2.66311140E-04  7.01338211E-01  3.50992107E-02 -1.62774484E-08
  3.20346858E-04 -1.09749504E-04 -1.45835651E-02  1.06280596E-07 -2.26752967E-03
  2.27271975E-03 -6.61636880E-03 -6.04111185E-03 -6.33924403E-03 -1.22105096E-09
 -3.50024071E-08  2.26452232E-04 -2.35107072E-04  8.76970560E-04 -7.01338211E-01
 -3.50992107E-02 -1.62774484E-08  3.20346858E-04  1.09749504E-04  1.45835651E-02
  1.06280596E-07 -2.26752967E-03 -2.27271975E-03  6.61636880E-03  6.04111185E-03
  6.33924403E-03  1.22105096E-09 -3.50024071E-08  2.26452232E-04  2.35107072E-04
 -8.76970560E-04 -3.30191414E-02 -1.29014737E-03  2.29045554E-08 -1.17694725E-04
  1.95088767E-04 -4.16423929E-03 -2.21249614E-07  1.74862740E-03 -7.99900051E-04
  3.73260452E-04  4.59364994E-04  6.32874298E-04  3.27930391E-08  4.08537418E-08
 -5.18427384E-05  1.35791260E-04  3.84718646E-04  2.80477731E-05 -2.07418990E-04
  3.30191414E-02  1.29014737E-03  2.29045554E-08 -1.17694725E-04 -1.95088767E-04
  4.16423929E-03 -2.21249614E-07  1.74862740E-03  7.99900051E-04 -3.73260452E-04
 -4.59364994E-04 -6.32874298E-04 -3.27930391E-08  4.08537418E-08 -5.18427384E-05
 -1.35791260E-04 -3.84718646E-04 -2.80477731E-05  2.07418990E-04  3.33601420E-02
  1.97528730E-03  1.61998207E-08 -1.90898212E-04 -2.33271100E-04 -4.05474627E-03
  8.08331153E-08  9.89914588E-04  1.48905859E-03 -2.46081200E-04 -3.81615781E-05
 -1.03581643E-04 -4.26576211E-08 -4.70368945E-09  4.37118042E-05  2.27878619E-05
  1.10493945E-04 -3.33601420E-02 -1.97528730E-03  1.61998207E-08 -1.90898212E-04
  2.33271100E-04  4.05474627E-03  8.08331153E-08  9.89914588E-04 -1.48905859E-03
  2.46081200E-04  3.81615781E-05  1.03581643E-04  4.26576211E-08 -4.70368945E-09
  4.37118042E-05 -2.27878619E-05 -1.10493945E-04  7.01186408E-01  3.48569567E-02
  6.77445145E-08 -5.39307601E-05  2.22291534E-06 -9.97075364E-03 -3.89891463E-07
  7.36708178E-04 -5.82046463E-04 -6.87408743E-03 -6.58556379E-03 -6.54547256E-03
 -3.65034111E-08 -7.19955115E-08 -1.04432642E-04 -2.17740153E-04  1.80118950E-03
 -2.35191566E-04  1.45943355E-03 -7.01186408E-01 -3.48569567E-02  6.77445145E-08
 -5.39307601E-05 -2.22291534E-06  9.97075364E-03 -3.89891463E-07  7.36708178E-04
  5.82046463E-04  6.87408743E-03  6.58556379E-03  6.54547256E-03  3.65034111E-08
 -7.19955115E-08 -1.04432642E-04  2.17740153E-04 -1.80118950E-03  2.35191566E-04
 -1.45943355E-03 -3.19737586E-02 -2.00442871E-03  1.36754924E-08  1.57381004E-04
  2.84037720E-04  3.41080513E-03 -1.18910744E-07 -8.45355874E-04 -1.12717207E-03
  1.93561432E-04  1.64290967E-04  1.13441819E-04  2.61742784E-08  4.27377078E-09
 -5.56373581E-05 -3.12091656E-05  4.98210079E-05 -3.19737586E-02 -2.00442871E-03
 -1.36754924E-08 -1.57381004E-04  2.84037720E-04  3.41080513E-03  1.18910744E-07
  8.45355874E-04 -1.12717207E-03  1.93561432E-04  1.64290967E-04  1.13441819E-04
  2.61742784E-08 -4.27377078E-09  5.56373581E-05 -3.12091656E-05  4.98210079E-05
  7.01231272E-01  3.48072867E-02  7.29277260E-09  1.40476425E-05  4.34377812E-05
 -9.20861916E-03 -1.54761048E-07  3.11754954E-04 -6.57645391E-04 -6.93575158E-03
 -6.65077447E-03 -6.56168267E-03 -5.63132365E-08 -1.00861167E-07 -1.08812100E-04
 -2.52796066E-04  1.39582180E-03 -2.24861712E-04  1.61289414E-03  7.01231272E-01
  3.48072867E-02 -7.29277260E-09 -1.40476425E-05  4.34377812E-05 -9.20861916E-03
  1.54761048E-07 -3.11754954E-04 -6.57645391E-04 -6.93575158E-03 -6.65077447E-03
 -6.56168267E-03 -5.63132365E-08  1.00861167E-07  1.08812100E-04 -2.52796066E-04
  1.39582180E-03 -2.24861712E-04  1.61289414E-03 -1.34365987E-01  2.61077661E-01
 -4.16633095E-06  2.50285917E-02 -4.14859210E-02  1.72148306E-01 -1.47774423E-06
  6.85375483E-03  4.11064218E-03 -1.42438867E-02  6.02786055E-03  9.34702259E-04
  5.55198827E-07 -1.19843179E-06  1.33315785E-03  6.54130875E-02  9.62379208E-03
 -1.34365987E-01  2.61077661E-01  4.16633095E-06 -2.50285917E-02 -4.14859210E-02
  1.72148306E-01  1.47774423E-06 -6.85375483E-03  4.11064218E-03 -1.42438867E-02
  6.02786055E-03  9.34702259E-04  5.55198827E-07  1.19843179E-06 -1.33315785E-03
  6.54130875E-02  9.62379208E-03 -9.26751491E-02  1.77047972E-01  5.25705711E-06
 -5.14041999E-02  5.39730018E-02  1.31072800E-01  1.16563423E-06 -8.76357022E-03
  5.92178205E-03 -1.01070841E-02  2.55032791E-03  3.35322710E-03 -2.49146563E-06
 -2.93001437E-06 -4.33992207E-03  4.60882166E-02  9.76668569E-03  4.15082162E-02
  7.96424121E-03 -9.26751491E-02  1.77047972E-01 -5.25705711E-06  5.14041999E-02
  5.39730018E-02  1.31072800E-01 -1.16563423E-06  8.76357022E-03  5.92178205E-03
 -1.01070841E-02  2.55032791E-03  3.35322710E-03 -2.49146563E-06  2.93001437E-06
  4.33992207E-03  4.60882166E-02  9.76668569E-03  4.15082162E-02  7.96424121E-03
  9.01884086E-02 -1.80839082E-01  5.18562051E-06  1.12379846E-01  6.15923484E-02
 -1.16400528E-01  1.59157677E-06  2.88115961E-02 -1.78007246E-02  8.15348506E-03
  7.59276726E-03 -5.90203022E-03 -5.33447992E-07  1.02122132E-06 -5.54928746E-03
 -5.58234503E-02 -5.01580205E-03 -9.01884086E-02  1.80839082E-01  5.18562051E-06
  1.12379846E-01 -6.15923484E-02  1.16400528E-01  1.59157677E-06  2.88115961E-02
  1.78007246E-02 -8.15348506E-03 -7.59276726E-03  5.90203022E-03  5.33447992E-07
  1.02122132E-06 -5.54928746E-03  5.58234503E-02  5.01580205E-03 -1.29394561E-01
  2.50644408E-01  7.08935632E-06 -2.69387549E-02  5.81948460E-02  2.15526642E-01
  5.11844721E-06 -4.49209533E-03  7.96959984E-04 -1.32394895E-02  2.03458388E-03
  4.42574729E-03 -4.12856441E-06 -4.80211083E-06 -2.13619048E-03  6.90737256E-02
  7.82227719E-03  7.92624637E-02  2.02972743E-02  1.29394561E-01 -2.50644408E-01
  7.08935632E-06 -2.69387549E-02 -5.81948460E-02 -2.15526642E-01  5.11844721E-06
 -4.49209533E-03 -7.96959984E-04  1.32394895E-02 -2.03458388E-03 -4.42574729E-03
  4.12856441E-06 -4.80211083E-06 -2.13619048E-03 -6.90737256E-02 -7.82227719E-03
 -7.92624637E-02 -2.02972743E-02  7.48274088E-02 -1.52958825E-01  4.53412544E-06
 -1.37296938E-01 -1.32607051E-01 -1.28925299E-01  1.78881982E-06 -3.42056820E-02