10
Scan step 3     E=    -155.990777                                                                   
C          0.60024       -0.41528        0.10713
H          1.55138        0.11119        0.19394
C         -0.60024        0.41528        0.10713
H         -1.55138       -0.11119        0.19394
C         -0.60024        1.74158       -0.08520
H          0.32593        2.30116       -0.19801
H         -1.52246        2.31324       -0.12753
C          0.60024       -1.74158       -0.08520
H         -0.32593       -2.30116       -0.19801
H          1.52246       -2.31324       -0.12753
