FCHK created with read_scan from butadiene_scan.fchk
Scan      RB3LYP                                                      6-31G(d)  
Number of atoms                            I               10
Charge                                     I                0
Multiplicity                               I                1
Atomic numbers                             I   N=          10
           6           1           6           1           6           1
           1           6           1           1
Nuclear charges                            R   N=          10
  6.00000000E+00  1.00000000E+00  6.00000000E+00  1.00000000E+00  6.00000000E+00
  1.00000000E+00  1.00000000E+00  6.00000000E+00  1.00000000E+00  1.00000000E+00
Current cartesian coordinates              R   N=          30
  1.00049515E+00 -9.84545488E-01  7.71549109E-01  2.49964635E+00 -7.56600514E-01
  2.17230946E+00 -1.00049515E+00  9.84545488E-01  7.71549109E-01 -2.49964635E+00
  7.56600514E-01  2.17230946E+00 -1.00049515E+00  3.03775650E+00 -6.91910821E-01
  4.77744128E-01  3.37190221E+00 -2.07957220E+00 -2.49287342E+00  4.44398670E+00
 -5.70566990E-01  1.00049515E+00 -3.03775650E+00 -6.91910821E-01 -4.77744128E-01
 -3.37190221E+00 -2.07957220E+00  2.49287342E+00 -4.44398670E+00 -5.70566990E-01
Integer atomic weights                     I   N=          30
           1           0           0           2           0           2
          -1           0           0          -2           0           2
          -1           3           0           0           3          -2
          -2           4           0           1          -3           0
           0          -3          -2           2          -4           0
Real atomic weights                        R   N=          30
  1.00049515E+00 -9.84545488E-01  7.71549109E-01  2.49964635E+00 -7.56600514E-01
  2.17230946E+00 -1.00049515E+00  9.84545488E-01  7.71549109E-01 -2.49964635E+00
  7.56600514E-01  2.17230946E+00 -1.00049515E+00  3.03775650E+00 -6.91910821E-01
  4.77744128E-01  3.37190221E+00 -2.07957220E+00 -2.49287342E+00  4.44398670E+00
 -5.70566990E-01  1.00049515E+00 -3.03775650E+00 -6.91910821E-01 -4.77744128E-01
 -3.37190221E+00 -2.07957220E+00  2.49287342E+00 -4.44398670E+00 -5.70566990E-01
Total Energy                               R     -1.559805760000000E+02
Cartesian Gradient                         R   N=          30
 -5.15877138E-03 -1.59810881E-03  3.27081072E-03  1.70187485E-03  7.89445804E-04
 -2.21892186E-03  5.15877138E-03  1.59810881E-03  3.27081072E-03 -1.70187485E-03
 -7.89445804E-04 -2.21892186E-03 -4.83644739E-04  2.45901881E-04 -3.56103421E-04
 -1.38431044E-04 -1.34850068E-05 -3.57704629E-04 -1.87979349E-04 -6.90428765E-05
 -3.38080806E-04  4.83644739E-04 -2.45901881E-04 -3.56103421E-04  1.38431044E-04
  1.34850068E-05 -3.57704629E-04  1.87979349E-04  6.90428765E-05 -3.38080806E-04
