FCHK created with read_scan from butadiene_scan.fchk
Scan      RB3LYP                                                      6-31G(d)  
Number of atoms                            I               10
Charge                                     I                0
Multiplicity                               I                1
Atomic numbers                             I   N=          10
           6           1           6           1           6           1
           1           6           1           1
Nuclear charges                            R   N=          10
  6.00000000E+00  1.00000000E+00  6.00000000E+00  1.00000000E+00  6.00000000E+00
  1.00000000E+00  1.00000000E+00  6.00000000E+00  1.00000000E+00  1.00000000E+00
Current cartesian coordinates              R   N=          30
  1.12349211E+00 -8.12501150E-01  3.95221990E-01  2.92462808E+00  1.16411010E-01
  7.72033447E-01 -1.12349211E+00  8.12501150E-01  3.95221990E-01 -2.92462808E+00
 -1.16411010E-01  7.72033447E-01 -1.12349211E+00  3.23919297E+00 -3.20478143E-01
  6.17278291E-01  4.22952178E+00 -7.85666649E-01 -2.85984912E+00  4.32737080E+00
 -4.34829879E-01  1.12349211E+00 -3.23919297E+00 -3.20478143E-01 -6.17278291E-01
 -4.22952178E+00 -7.85666649E-01  2.85984912E+00 -4.32737080E+00 -4.34829879E-01
Integer atomic weights                     I   N=          30
           1           0           0           2           0           0
          -1           0           0          -2           0           0
          -1           3           0           0           4           0
          -2           4           0           1          -3           0
           0          -4           0           2          -4           0
Real atomic weights                        R   N=          30
  1.12349211E+00 -8.12501150E-01  3.95221990E-01  2.92462808E+00  1.16411010E-01
  7.72033447E-01 -1.12349211E+00  8.12501150E-01  3.95221990E-01 -2.92462808E+00
 -1.16411010E-01  7.72033447E-01 -1.12349211E+00  3.23919297E+00 -3.20478143E-01
  6.17278291E-01  4.22952178E+00 -7.85666649E-01 -2.85984912E+00  4.32737080E+00
 -4.34829879E-01  1.12349211E+00 -3.23919297E+00 -3.20478143E-01 -6.17278291E-01
 -4.22952178E+00 -7.85666649E-01  2.85984912E+00 -4.32737080E+00 -4.34829879E-01
Total Energy                               R     -1.559870060000000E+02
Cartesian Gradient                         R   N=          30
 -4.37528036E-03 -2.33843000E-03  9.40894754E-03  2.77314159E-04 -2.62317882E-04
 -2.25609237E-03  4.37528036E-03  2.33843000E-03  9.40894754E-03 -2.77314159E-04
  2.62317882E-04 -2.25609237E-03 -1.71566399E-03 -1.72353289E-03 -6.61745736E-03
  3.21184066E-06 -2.12049728E-04 -4.20690706E-04  4.15992941E-05  6.90219852E-05
 -1.14707111E-04  1.71566399E-03  1.72353289E-03 -6.61745736E-03 -3.21184066E-06
  2.12049728E-04 -4.20690706E-04 -4.15992941E-05 -6.90219852E-05 -1.14707111E-04
