FCHK created with read_scan from butadiene_scan.fchk
Scan      RB3LYP                                                      6-31G(d)  
Number of atoms                            I               10
Charge                                     I                0
Multiplicity                               I                1
Atomic numbers                             I   N=          10
           6           1           6           1           6           1
           1           6           1           1
Nuclear charges                            R   N=          10
  6.00000000E+00  1.00000000E+00  6.00000000E+00  1.00000000E+00  6.00000000E+00
  1.00000000E+00  1.00000000E+00  6.00000000E+00  1.00000000E+00  1.00000000E+00
Current cartesian coordinates              R   N=          30
  1.15254603E+00  7.54599174E-01  1.01927910E-01  9.03791743E-01  2.79870597E+00
  1.82146004E-01 -1.15254603E+00 -7.54599164E-01  1.01927912E-01 -9.03791729E-01
 -2.79870596E+00  1.82146011E-01 -3.48879176E+00  2.07441800E-01 -8.04497762E-02
 -3.81234779E+00  2.23492558E+00 -1.86767899E-01 -5.15251976E+00 -9.92705005E-01
 -1.24246913E-01  3.48879176E+00 -2.07441806E-01 -8.04497772E-02  3.81234776E+00
 -2.23492559E+00 -1.86767895E-01  5.15251976E+00  9.92704983E-01 -1.24246919E-01
Integer atomic weights                     I   N=          30
           1           0           0           0           2           0
          -1           0           0           0          -2           0
          -3           0           0          -3           2           0
          -5           0           0           3           0           0
           3          -2           0           5           0           0
Real atomic weights                        R   N=          30
  1.15254603E+00  7.54599174E-01  1.01927910E-01  9.03791743E-01  2.79870597E+00
  1.82146004E-01 -1.15254603E+00 -7.54599164E-01  1.01927912E-01 -9.03791729E-01
 -2.79870596E+00  1.82146011E-01 -3.48879176E+00  2.07441800E-01 -8.04497762E-02
 -3.81234779E+00  2.23492558E+00 -1.86767899E-01 -5.15251976E+00 -9.92705005E-01
 -1.24246913E-01  3.48879176E+00 -2.07441806E-01 -8.04497772E-02  3.81234776E+00
 -2.23492559E+00 -1.86767895E-01  5.15251976E+00  9.92704983E-01 -1.24246919E-01
Total Energy                               R     -1.559917950000000E+02
Cartesian Gradient                         R   N=          30
 -4.44509014E-04 -1.92621691E-04  4.35669404E-03  1.83328832E-04 -4.58774039E-07
 -1.92417443E-03  4.44510757E-04  1.92624034E-04  4.35669362E-03 -1.83328888E-04
  4.59189542E-07 -1.92417444E-03 -1.08633322E-04 -1.86719731E-04 -1.94929287E-03
  3.85788713E-05  2.06111221E-05 -5.51305506E-04 -5.24666214E-05  1.11150758E-05
  6.80789874E-05  1.08632511E-04  1.86720737E-04 -1.94929265E-03 -3.85787042E-05
 -2.06130881E-05 -5.51305643E-04  5.24655786E-05 -1.11168750E-05  6.80788980E-05
