FCHK created with read_scan from butadiene_scan.fchk
Scan      RB3LYP                                                      6-31G(d)  
Number of atoms                            I               10
Charge                                     I                0
Multiplicity                               I                1
Atomic numbers                             I   N=          10
           6           1           6           1           6           1
           1           6           1           1
Nuclear charges                            R   N=          10
  6.00000000E+00  1.00000000E+00  6.00000000E+00  1.00000000E+00  6.00000000E+00
  1.00000000E+00  1.00000000E+00  6.00000000E+00  1.00000000E+00  1.00000000E+00
Current cartesian coordinates              R   N=          30
  8.88061920E-01 -1.07788115E+00  8.94506634E-01  2.16346273E+00 -1.19678282E+00
  2.51319805E+00 -8.88061920E-01  1.07788115E+00  8.94506634E-01 -2.16346273E+00
  1.19678282E+00  2.51319805E+00 -8.88061920E-01  2.94662281E+00 -8.02546793E-01
  4.20282538E-01  2.95515515E+00 -2.38656917E+00 -2.20944762E+00  4.51411203E+00
 -6.78387925E-01  8.88061920E-01 -2.94662281E+00 -8.02546793E-01 -4.20282538E-01
 -2.95515515E+00 -2.38656917E+00  2.20944762E+00 -4.51411203E+00 -6.78387925E-01
Integer atomic weights                     I   N=          30
           0          -1           0           2          -1           2
           0           1           0          -2           1           2
           0           2           0           0           2          -2
          -2           4           0           0          -2           0
           0          -2          -2           2          -4           0
Real atomic weights                        R   N=          30
  8.88061920E-01 -1.07788115E+00  8.94506634E-01  2.16346273E+00 -1.19678282E+00
  2.51319805E+00 -8.88061920E-01  1.07788115E+00  8.94506634E-01 -2.16346273E+00
  1.19678282E+00  2.51319805E+00 -8.88061920E-01  2.94662281E+00 -8.02546793E-01
  4.20282538E-01  2.95515515E+00 -2.38656917E+00 -2.20944762E+00  4.51411203E+00
 -6.78387925E-01  8.88061920E-01 -2.94662281E+00 -8.02546793E-01 -4.20282538E-01
 -2.95515515E+00 -2.38656917E+00  2.20944762E+00 -4.51411203E+00 -6.78387925E-01
Total Energy                               R     -1.559831290000000E+02
Cartesian Gradient                         R   N=          30
 -1.08814438E-04 -1.37055124E-03  1.14761676E-04  1.56367748E-03  1.69722934E-03
 -1.27830605E-03  1.08814438E-04  1.37055124E-03  1.14761676E-04 -1.56367748E-03
 -1.69722934E-03 -1.27830605E-03  1.61736923E-03  1.58463823E-03  1.81902032E-03
 -3.04267568E-04 -1.58825732E-04 -4.40225145E-04 -1.85319211E-04 -1.08455938E-04
 -2.15250803E-04 -1.61736923E-03 -1.58463823E-03  1.81902032E-03  3.04267568E-04
  1.58825732E-04 -4.40225145E-04  1.85319211E-04  1.08455938E-04 -2.15250803E-04
