FCHK created with read_scan from butadiene_scan.fchk
Scan      RB3LYP                                                      6-31G(d)  
Number of atoms                            I               10
Charge                                     I                0
Multiplicity                               I                1
Atomic numbers                             I   N=          10
           6           1           6           1           6           1
           1           6           1           1
Nuclear charges                            R   N=          10
  6.00000000E+00  1.00000000E+00  6.00000000E+00  1.00000000E+00  6.00000000E+00
  1.00000000E+00  1.00000000E+00  6.00000000E+00  1.00000000E+00  1.00000000E+00
Current cartesian coordinates              R   N=          30
  1.04403149E+00 -9.41530623E-01  7.06658339E-01  2.65946039E+00 -5.22444160E-01
  1.91989861E+00 -1.04403149E+00  9.41530623E-01  7.06658339E-01 -2.65946039E+00
  5.22444160E-01  1.91989861E+00 -1.04403149E+00  3.08136945E+00 -6.26748071E-01
  5.20586269E-01  3.58935483E+00 -1.85864310E+00 -2.61797241E+00  4.39841348E+00
 -5.40717122E-01  1.04403149E+00 -3.08136945E+00 -6.26748071E-01 -5.20586269E-01
 -3.58935483E+00 -1.85864310E+00  2.61797241E+00 -4.39841348E+00 -5.40717122E-01
Integer atomic weights                     I   N=          30
           1           0           0           2           0           1
          -1           0           0          -2           0           1
          -1           3           0           0           3          -1
          -2           4           0           1          -3           0
           0          -3          -1           2          -4           0
Real atomic weights                        R   N=          30
  1.04403149E+00 -9.41530623E-01  7.06658339E-01  2.65946039E+00 -5.22444160E-01
  1.91989861E+00 -1.04403149E+00  9.41530623E-01  7.06658339E-01 -2.65946039E+00
  5.22444160E-01  1.91989861E+00 -1.04403149E+00  3.08136945E+00 -6.26748071E-01
  5.20586269E-01  3.58935483E+00 -1.85864310E+00 -2.61797241E+00  4.39841348E+00
 -5.40717122E-01  1.04403149E+00 -3.08136945E+00 -6.26748071E-01 -5.20586269E-01
 -3.58935483E+00 -1.85864310E+00  2.61797241E+00 -4.39841348E+00 -5.40717122E-01
Total Energy                               R     -1.559800900000000E+02
Cartesian Gradient                         R   N=          30
 -6.46904521E-03 -5.37012396E-03  6.23193329E-03  8.94022456E-04  1.01538502E-03
 -2.62168126E-03  6.46904521E-03  5.37012396E-03  6.23193329E-03 -8.94022456E-04
 -1.01538502E-03 -2.62168126E-03 -1.98005045E-03 -1.54930684E-03 -2.94746717E-03
 -3.57527133E-05 -9.73830883E-05 -2.71871531E-04 -7.80413204E-05 -1.44120154E-04
 -3.90913333E-04  1.98005045E-03  1.54930684E-03 -2.94746717E-03  3.57527133E-05
  9.73830883E-05 -2.71871531E-04  7.80413204E-05  1.44120154E-04 -3.90913333E-04
