FCHK created with read_scan from butadiene_scan.fchk
Scan      RB3LYP                                                      6-31G(d)  
Number of atoms                            I               10
Charge                                     I                0
Multiplicity                               I                1
Atomic numbers                             I   N=          10
           6           1           6           1           6           1
           1           6           1           1
Nuclear charges                            R   N=          10
  6.00000000E+00  1.00000000E+00  6.00000000E+00  1.00000000E+00  6.00000000E+00
  1.00000000E+00  1.00000000E+00  6.00000000E+00  1.00000000E+00  1.00000000E+00
Current cartesian coordinates              R   N=          30
 -6.16188667E-01  1.23158554E+00  0.00000000E+00 -2.67684619E+00  1.21958767E+00
  0.00000000E+00  6.16188667E-01 -1.23158554E+00  0.00000000E+00  2.67684619E+00
 -1.21958767E+00  0.00000000E+00 -6.16188667E-01 -3.44490647E+00  0.00000000E+00
 -2.67020191E+00 -3.53231954E+00  0.00000000E+00  3.80433994E-01 -5.23847577E+00
  0.00000000E+00  6.16188667E-01  3.44490647E+00  0.00000000E+00  2.67020191E+00
  3.53231954E+00  0.00000000E+00 -3.80433994E-01  5.23847577E+00  0.00000000E+00
Integer atomic weights                     I   N=          30
           0           1           0          -2           1           0
           0          -1           0           2          -1           0
           0          -3           0          -2          -3           0
           0          -5           0           0           3           0
           2           3           0           0           5           0
Real atomic weights                        R   N=          30
 -6.16188667E-01  1.23158554E+00  0.00000000E+00 -2.67684619E+00  1.21958767E+00
  0.00000000E+00  6.16188667E-01 -1.23158554E+00  0.00000000E+00  2.67684619E+00
 -1.21958767E+00  0.00000000E+00 -6.16188667E-01 -3.44490647E+00  0.00000000E+00
 -2.67020191E+00 -3.53231954E+00  0.00000000E+00  3.80433994E-01 -5.23847577E+00
  0.00000000E+00  6.16188667E-01  3.44490647E+00  0.00000000E+00  2.67020191E+00
  3.53231954E+00  0.00000000E+00 -3.80433994E-01  5.23847577E+00  0.00000000E+00
Total Energy                               R     -1.559921400000000E+02
Cartesian Gradient                         R   N=          30
 -1.52629877E-06 -8.00849284E-07  0.00000000E+00  3.83126861E-07  2.89985499E-07
  0.00000000E+00  1.52629877E-06  8.00849280E-07  0.00000000E+00 -3.83126864E-07
 -2.89985501E-07  0.00000000E+00 -1.65175843E-06 -9.00544173E-07  0.00000000E+00
  5.33547613E-07  2.14705123E-07  0.00000000E+00  1.85849241E-07 -2.12020654E-07
  0.00000000E+00  1.65175844E-06  9.00544197E-07  0.00000000E+00 -5.33547613E-07
 -2.14705125E-07  0.00000000E+00 -1.85849240E-07  2.12020653E-07  0.00000000E+00
