FCHK created with read_scan from butadiene_scan.fchk
Scan      RB3LYP                                                      6-31G(d)  
Number of atoms                            I               10
Charge                                     I                0
Multiplicity                               I                1
Atomic numbers                             I   N=          10
           6           1           6           1           6           1
           1           6           1           1
Nuclear charges                            R   N=          10
  6.00000000E+00  1.00000000E+00  6.00000000E+00  1.00000000E+00  6.00000000E+00
  1.00000000E+00  1.00000000E+00  6.00000000E+00  1.00000000E+00  1.00000000E+00
Current cartesian coordinates              R   N=          30
  1.38425316E+00  1.05764314E+00 -1.28911228E-01  2.23734624E+00  2.90089598E+00
 -4.72405265E-01 -1.38359630E+00  1.05942824E+00  1.17730022E-01 -2.22943313E+00
  2.89826729E+00  5.00691412E-01 -2.91760395E+00 -9.43371801E-01 -9.22610601E-02
 -2.21129366E+00 -2.81845899E+00 -5.46756634E-01 -4.94618242E+00 -7.64836381E-01
  1.61620143E-01  2.91637498E+00 -9.45064696E-01  9.64429190E-02  2.20543040E+00
 -2.82236586E+00  5.34041369E-01  4.94756520E+00 -7.65311311E-01 -1.35194942E-01
Integer atomic weights                     I   N=          30
           1           1           0           2           2           0
          -1           1           0          -2           2           0
          -2           0           0          -2          -2           0
          -4           0           0           2           0           0
           2          -2           0           4           0           0
Real atomic weights                        R   N=          30
  1.38425316E+00  1.05764314E+00 -1.28911228E-01  2.23734624E+00  2.90089598E+00
 -4.72405265E-01 -1.38359630E+00  1.05942824E+00  1.17730022E-01 -2.22943313E+00
  2.89826729E+00  5.00691412E-01 -2.91760395E+00 -9.43371801E-01 -9.22610601E-02
 -2.21129366E+00 -2.81845899E+00 -5.46756634E-01 -4.94618242E+00 -7.64836381E-01
  1.61620143E-01  2.91637498E+00 -9.45064696E-01  9.64429190E-02  2.20543040E+00
 -2.82236586E+00  5.34041369E-01  4.94756520E+00 -7.65311311E-01 -1.35194942E-01
Total Energy                               R     -1.559863130000000E+02
Cartesian Gradient                         R   N=          30
 -1.10652054E-03 -4.91328275E-03 -7.24371619E-03  1.29746791E-03  1.41460989E-03
  4.10159561E-03 -4.25072599E-04  3.87725284E-03 -6.45103995E-03 -3.84871667E-04
 -1.17217174E-03  3.80925669E-03  1.04502239E-03 -6.79439130E-04  2.12227931E-03
  6.52695616E-04 -1.53373630E-04  6.92604970E-04 -1.51230836E-04  5.48259636E-05
  3.86272139E-04 -7.00595060E-04  1.37802494E-03  1.57920800E-03 -6.78226294E-04
  1.49685475E-05  6.68472879E-04  4.51331086E-04  1.78585061E-04  3.35066541E-04
