FCHK created with read_scan from butadiene_scan.fchk
Scan      RB3LYP                                                      6-31G(d)  
Number of atoms                            I               10
Charge                                     I                0
Multiplicity                               I                1
Atomic numbers                             I   N=          10
           6           1           6           1           6           1
           1           6           1           1
Nuclear charges                            R   N=          10
  6.00000000E+00  1.00000000E+00  6.00000000E+00  1.00000000E+00  6.00000000E+00
  1.00000000E+00  1.00000000E+00  6.00000000E+00  1.00000000E+00  1.00000000E+00
Current cartesian coordinates              R   N=          30
  1.39040686E+00  1.06414841E+00  3.14114885E-04  2.25560055E+00  2.93267703E+00
  1.72492679E-04 -1.39029457E+00  1.06409468E+00 -5.80788991E-05 -2.25588153E+00
  2.93244270E+00 -7.27210517E-04 -2.92363940E+00 -9.50912586E-01  1.67881219E-05
 -2.21405568E+00 -2.87909884E+00  3.81660384E-05 -4.96395269E+00 -7.32527642E-01
 -9.94733015E-05  2.92364200E+00 -9.50924617E-01 -5.84701402E-05  2.21361223E+00
 -2.87895511E+00  3.26242425E-04  4.96398779E+00 -7.32973470E-01 -9.96341126E-04
Integer atomic weights                     I   N=          30
           1           1           0           2           2           0
          -1           1           0          -2           2           0
          -2           0           0          -2          -2           0
          -4           0           0           2           0           0
           2          -2           0           4           0           0
Real atomic weights                        R   N=          30
  1.39040686E+00  1.06414841E+00  3.14114885E-04  2.25560055E+00  2.93267703E+00
  1.72492679E-04 -1.39029457E+00  1.06409468E+00 -5.80788991E-05 -2.25588153E+00
  2.93244270E+00 -7.27210517E-04 -2.92363940E+00 -9.50912586E-01  1.67881219E-05
 -2.21405568E+00 -2.87909884E+00  3.81660384E-05 -4.96395269E+00 -7.32527642E-01
 -9.94733015E-05  2.92364200E+00 -9.50924617E-01 -5.84701402E-05  2.21361223E+00
 -2.87895511E+00  3.26242425E-04  4.96398779E+00 -7.32973470E-01 -9.96341126E-04
Total Energy                               R     -1.559859510000000E+02
Cartesian Gradient                         R   N=          30
 -1.59246211E-03 -2.30688967E-03 -9.45479439E-03  1.30433210E-03  3.23860165E-04
  6.25634172E-03  6.74860964E-04  2.14524017E-03 -8.70953263E-03 -5.42720219E-04
 -9.29082180E-04  3.95188713E-03  5.51429086E-04 -3.78303863E-04  3.63960536E-03
  5.62717654E-04 -3.65950720E-05  2.11060354E-04 -5.69058262E-05 -7.68154294E-06
  6.34432853E-04 -5.91028559E-04  1.05961511E-03  2.18315232E-03 -7.31004547E-04
  1.64479865E-05  1.24983112E-03  4.20781460E-04  1.13388901E-04  3.80161604E-05
