FCHK created with read_scan from butadiene_scan.fchk
Scan      RB3LYP                                                      6-31G(d)  
Number of atoms                            I               10
Charge                                     I                0
Multiplicity                               I                1
Atomic numbers                             I   N=          10
           6           1           6           1           6           1
           1           6           1           1
Nuclear charges                            R   N=          10
  6.00000000E+00  1.00000000E+00  6.00000000E+00  1.00000000E+00  6.00000000E+00
  1.00000000E+00  1.00000000E+00  6.00000000E+00  1.00000000E+00  1.00000000E+00
Current cartesian coordinates              R   N=          30
  1.17384500E+00  7.58293890E-01  2.39877065E-01  1.04627444E+00  2.74145594E+00
  7.85855544E-01 -1.17322413E+00 -7.10458511E-01  3.32037617E-01 -9.68876232E-01
 -2.73058862E+00  6.85700521E-01 -3.45770155E+00  2.06305928E-01 -2.56268254E-01
 -3.74203769E+00  2.19374372E+00 -6.99551823E-01 -5.12689657E+00 -9.87724533E-01
 -2.74404447E-01  3.45003577E+00 -2.37165612E-01 -2.42172370E-01  3.68482171E+00
 -2.23263021E+00 -6.78791679E-01  5.14898382E+00  9.13889534E-01 -2.59652464E-01
Integer atomic weights                     I   N=          30
           1           0           0           1           2           0
          -1           0           0           0          -2           0
          -3           0           0          -3           2           0
          -5           0           0           3           0           0
           3          -2           0           5           0           0
Real atomic weights                        R   N=          30
  1.17384500E+00  7.58293890E-01  2.39877065E-01  1.04627444E+00  2.74145594E+00
  7.85855544E-01 -1.17322413E+00 -7.10458511E-01  3.32037617E-01 -9.68876232E-01
 -2.73058862E+00  6.85700521E-01 -3.45770155E+00  2.06305928E-01 -2.56268254E-01
 -3.74203769E+00  2.19374372E+00 -6.99551823E-01 -5.12689657E+00 -9.87724533E-01
 -2.74404447E-01  3.45003577E+00 -2.37165612E-01 -2.42172370E-01  3.68482171E+00
 -2.23263021E+00 -6.78791679E-01  5.14898382E+00  9.13889534E-01 -2.59652464E-01
Total Energy                               R     -1.559877320000000E+02
Cartesian Gradient                         R   N=          30
 -5.71791621E-03  1.34173658E-03 -2.18105018E-02  2.38992062E-03 -1.95243085E-03
  8.69456581E-03  3.05589054E-03  2.92719352E-03  2.13194329E-02 -1.12094945E-03
 -2.31544172E-04 -3.49994298E-03  9.38835932E-04 -2.18076914E-03 -6.15533580E-03
  1.83442646E-04  7.97400719E-05 -5.55114454E-04  2.25115247E-04 -5.19956891E-05
 -7.42144324E-04  9.45349731E-05  2.92402915E-04  1.40456166E-03 -1.25452466E-04
 -3.00886605E-05  2.27278011E-04  7.65781647E-05 -1.94244564E-04  1.11720102E-03
