FCHK created with read_scan from butadiene_scan.fchk
Scan      RB3LYP                                                      6-31G(d)  
Number of atoms                            I               10
Charge                                     I                0
Multiplicity                               I                1
Atomic numbers                             I   N=          10
           6           1           6           1           6           1
           1           6           1           1
Nuclear charges                            R   N=          10
  6.00000000E+00  1.00000000E+00  6.00000000E+00  1.00000000E+00  6.00000000E+00
  1.00000000E+00  1.00000000E+00  6.00000000E+00  1.00000000E+00  1.00000000E+00
Current cartesian coordinates              R   N=          30
  1.35159389E+00  9.99817589E-01 -3.01302505E-01  2.02522978E+00  2.64712685E+00
 -1.34472713E+00 -1.35782099E+00  9.83449484E-01  3.41451414E-01 -2.09925444E+00
  2.69663502E+00  1.21976473E+00 -2.95872512E+00 -8.87555054E-01 -2.27501046E-01
 -2.32428865E+00 -2.57761571E+00 -1.20809676E+00 -4.94840650E+00 -7.90890519E-01
  2.71459884E-01  2.96980573E+00 -8.71210408E-01  2.14883443E-01  2.38290513E+00
 -2.53204572E+00  1.27230344E+00  4.93469365E+00 -7.90219589E-01 -3.75892006E-01
Integer atomic weights                     I   N=          30
           1           0           0           2           2          -1
          -1           0           0          -2           2           1
          -2           0           0          -2          -2          -1
          -4           0           0           2           0           0
           2          -2           1           4           0           0
Real atomic weights                        R   N=          30
  1.35159389E+00  9.99817589E-01 -3.01302505E-01  2.02522978E+00  2.64712685E+00
 -1.34472713E+00 -1.35782099E+00  9.83449484E-01  3.41451414E-01 -2.09925444E+00
  2.69663502E+00  1.21976473E+00 -2.95872512E+00 -8.87555054E-01 -2.27501046E-01
 -2.32428865E+00 -2.57761571E+00 -1.20809676E+00 -4.94840650E+00 -7.90890519E-01
  2.71459884E-01  2.96980573E+00 -8.71210408E-01  2.14883443E-01  2.38290513E+00
 -2.53204572E+00  1.27230344E+00  4.93469365E+00 -7.90219589E-01 -3.75892006E-01
Total Energy                               R     -1.559851210000000E+02
Cartesian Gradient                         R   N=          30
  1.17639794E-03 -5.28092279E-03 -3.07501184E-03  8.13515296E-05  6.71751562E-04
 -7.64070421E-04 -2.30005283E-03  4.09201728E-03 -1.56956002E-03  2.69445303E-04
 -2.19404764E-03  3.89091052E-03  1.15148416E-04  1.07990987E-03 -1.70018446E-03
  2.80295973E-04 -7.24629575E-04  8.71802503E-04 -6.94976150E-05  7.68176975E-05
  1.34005715E-04  3.98523390E-05  2.08489971E-03  1.31803771E-03 -8.28974999E-06
 -1.23483947E-04  3.82139645E-04  4.15348700E-04  3.17687841E-04  5.11930646E-04
