FCHK created with read_scan from butadiene_scan.fchk
Scan      RB3LYP                                                      6-31G(d)  
Number of atoms                            I               10
Charge                                     I                0
Multiplicity                               I                1
Atomic numbers                             I   N=          10
           6           1           6           1           6           1
           1           6           1           1
Nuclear charges                            R   N=          10
  6.00000000E+00  1.00000000E+00  6.00000000E+00  1.00000000E+00  6.00000000E+00
  1.00000000E+00  1.00000000E+00  6.00000000E+00  1.00000000E+00  1.00000000E+00
Current cartesian coordinates              R   N=          30
  1.37009743E+00  1.03862235E+00 -2.21230042E-01  2.16237003E+00  2.80834683E+00
 -9.21200117E-01 -1.37120992E+00  1.03510747E+00  2.32839351E-01 -2.17695442E+00
  2.81542894E+00  8.89492625E-01 -2.92129954E+00 -9.23340455E-01 -1.70068351E-01
 -2.23330838E+00 -2.70382136E+00 -9.29933367E-01 -4.93077991E+00 -8.02617253E-01
  2.32052814E-01  2.92344035E+00 -9.20269404E-01  1.65958777E-01  2.24447410E+00
 -2.69601800E+00  9.44873885E-01  4.92802864E+00 -8.02038966E-01 -2.60284246E-01
Integer atomic weights                     I   N=          30
           1           1           0           2           2           0
          -1           1           0          -2           2           0
          -2           0           0          -2          -2           0
          -4           0           0           2           0           0
           2          -2           0           4           0           0
Real atomic weights                        R   N=          30
  1.37009743E+00  1.03862235E+00 -2.21230042E-01  2.16237003E+00  2.80834683E+00
 -9.21200117E-01 -1.37120992E+00  1.03510747E+00  2.32839351E-01 -2.17695442E+00
  2.81542894E+00  8.89492625E-01 -2.92129954E+00 -9.23340455E-01 -1.70068351E-01
 -2.23330838E+00 -2.70382136E+00 -9.29933367E-01 -4.93077991E+00 -8.02617253E-01
  2.32052814E-01  2.92344035E+00 -9.20269404E-01  1.65958777E-01  2.24447410E+00
 -2.69601800E+00  9.44873885E-01  4.92802864E+00 -8.02038966E-01 -2.60284246E-01
Total Energy                               R     -1.559863850000000E+02
Cartesian Gradient                         R   N=          30
  3.33051671E-04 -5.50248920E-03 -4.40714375E-03  6.71184767E-04  1.42757366E-03
  9.56915467E-04 -1.63790149E-03  3.95226258E-03 -3.38917656E-03 -7.72064465E-05
 -1.48641819E-03  3.82903081E-03  7.28827492E-04  8.34607620E-05 -3.16057704E-04
  4.66922836E-04 -4.27313331E-04  9.48630667E-04 -1.63952062E-04  1.14212378E-04
  1.91492893E-04 -4.65361832E-04  1.66416866E-03  1.29547966E-03 -3.13789034E-04
 -8.97904419E-05  3.88448883E-04  4.58224101E-04  2.64333128E-04  5.02379633E-04
