 Entering Gaussian System, Link 0=g16
 Initial command:
 /usr/local/gaussian/gaussian16.b1-legacy/g16/l1.exe "/scratch/master3/Gau-117914.inp" -scrdir="/scratch/master3/"
 Entering Link 1 = /usr/local/gaussian/gaussian16.b1-legacy/g16/l1.exe PID=    117915.
  
 Copyright (c) 1988-2017, Gaussian, Inc.  All Rights Reserved.
  
 This is part of the Gaussian(R) 16 program.  It is based on
 the Gaussian(R) 09 system (copyright 2009, Gaussian, Inc.),
 the Gaussian(R) 03 system (copyright 2003, Gaussian, Inc.),
 the Gaussian(R) 98 system (copyright 1998, Gaussian, Inc.),
 the Gaussian(R) 94 system (copyright 1995, Gaussian, Inc.),
 the Gaussian 92(TM) system (copyright 1992, Gaussian, Inc.),
 the Gaussian 90(TM) system (copyright 1990, Gaussian, Inc.),
 the Gaussian 88(TM) system (copyright 1988, Gaussian, Inc.),
 the Gaussian 86(TM) system (copyright 1986, Carnegie Mellon
 University), and the Gaussian 82(TM) system (copyright 1983,
 Carnegie Mellon University). Gaussian is a federally registered
 trademark of Gaussian, Inc.
  
 This software contains proprietary and confidential information,
 including trade secrets, belonging to Gaussian, Inc.
  
 This software is provided under written license and may be
 used, copied, transmitted, or stored only in accord with that
 written license.
  
 The following legend is applicable only to US Government
 contracts under FAR:
  
                    RESTRICTED RIGHTS LEGEND
  
 Use, reproduction and disclosure by the US Government is
 subject to restrictions as set forth in subparagraphs (a)
 and (c) of the Commercial Computer Software - Restricted
 Rights clause in FAR 52.227-19.
  
 Gaussian, Inc.
 340 Quinnipiac St., Bldg. 40, Wallingford CT 06492
  
  
 ---------------------------------------------------------------
 Warning -- This program may not be used in any manner that
 competes with the business of Gaussian, Inc. or will provide
 assistance to any competitor of Gaussian, Inc.  The licensee
 of this program is prohibited from giving any competitor of
 Gaussian, Inc. access to this program.  By using this program,
 the user acknowledges that Gaussian, Inc. is engaged in the
 business of creating and licensing software in the field of
 computational chemistry and represents and warrants to the
 licensee that it is not a competitor of Gaussian, Inc. and that
 it will not use this program in any manner prohibited above.
 ---------------------------------------------------------------
  

 Cite this work as:
 Gaussian 16, Revision B.01,
 M. J. Frisch, G. W. Trucks, H. B. Schlegel, G. E. Scuseria, 
 M. A. Robb, J. R. Cheeseman, G. Scalmani, V. Barone, 
 G. A. Petersson, H. Nakatsuji, X. Li, M. Caricato, A. V. Marenich, 
 J. Bloino, B. G. Janesko, R. Gomperts, B. Mennucci, H. P. Hratchian, 
 J. V. Ortiz, A. F. Izmaylov, J. L. Sonnenberg, D. Williams-Young, 
 F. Ding, F. Lipparini, F. Egidi, J. Goings, B. Peng, A. Petrone, 
 T. Henderson, D. Ranasinghe, V. G. Zakrzewski, J. Gao, N. Rega, 
 G. Zheng, W. Liang, M. Hada, M. Ehara, K. Toyota, R. Fukuda, 
 J. Hasegawa, M. Ishida, T. Nakajima, Y. Honda, O. Kitao, H. Nakai, 
 T. Vreven, K. Throssell, J. A. Montgomery, Jr., J. E. Peralta, 
 F. Ogliaro, M. J. Bearpark, J. J. Heyd, E. N. Brothers, K. N. Kudin, 
 V. N. Staroverov, T. A. Keith, R. Kobayashi, J. Normand, 
 K. Raghavachari, A. P. Rendell, J. C. Burant, S. S. Iyengar, 
 J. Tomasi, M. Cossi, J. M. Millam, M. Klene, C. Adamo, R. Cammi, 
 J. W. Ochterski, R. L. Martin, K. Morokuma, O. Farkas, 
 J. B. Foresman, and D. J. Fox, Gaussian, Inc., Wallingford CT, 2016.
 
 ******************************************
 Gaussian 16:  EM64L-G16RevB.01 20-Dec-2017
                26-Apr-2019 
 ******************************************
 %chk=butadiene_scan_new.chk
 -------------------------------------------------
 # opt=modredundant b3lyp/6-31g* geom=connectivity
 -------------------------------------------------
 1/18=120,19=15,26=3,38=1,57=2/1,3;
 2/9=110,12=2,17=6,18=5,40=1/2;
 3/5=1,6=6,7=1,11=2,25=1,30=1,71=1,74=-5/1,2,3;
 4//1;
 5/5=2,38=5/2;
 6/7=2,8=2,9=2,10=2,28=1/1;
 7//1,2,3,16;
 1/18=20,19=15,26=3/3(2);
 2/9=110/2;
 99//99;
 2/9=110/2;
 3/5=1,6=6,7=1,11=2,25=1,30=1,71=1,74=-5/1,2,3;
 4/5=5,16=3,69=1/1;
 5/5=2,38=5/2;
 7//1,2,3,16;
 1/18=20,19=15,26=3/3(-5);
 2/9=110/2;
 6/7=2,8=2,9=2,10=2,19=2,28=1/1;
 99/9=1/99;
 -------------------
 Title Card Required
 -------------------
 Symbolic Z-matrix:
 Charge =  0 Multiplicity = 1
 C                     0.6319    0.44      0. 
 H                     0.53933   1.50599   0. 
 C                    -0.6319   -0.44      0. 
 H                    -0.53933  -1.50599   0. 
 C                    -1.8609    0.13109   0. 
 H                    -1.9598    1.19651   0. 
 H                    -2.73535  -0.48554   0. 
 C                     1.8609   -0.13109   0. 
 H                     1.9598   -1.19651   0. 
 H                     2.73535   0.48554   0. 
 
 The following ModRedundant input section has been read:
 D       8       1       3       5 S  18 10.000                                
 

 GradGradGradGradGradGradGradGradGradGradGradGradGradGradGradGradGradGrad
 Berny optimization.
 Initialization pass.
                           ----------------------------
                           !    Initial Parameters    !
                           ! (Angstroms and Degrees)  !
 --------------------------                            --------------------------
 ! Name  Definition              Value          Derivative Info.                !
 --------------------------------------------------------------------------------
 ! R1    R(1,2)                  1.07           estimate D2E/DX2                !
 ! R2    R(1,3)                  1.54           estimate D2E/DX2                !
 ! R3    R(1,8)                  1.3552         estimate D2E/DX2                !
 ! R4    R(3,4)                  1.07           estimate D2E/DX2                !
 ! R5    R(3,5)                  1.3552         estimate D2E/DX2                !
 ! R6    R(5,6)                  1.07           estimate D2E/DX2                !
 ! R7    R(5,7)                  1.07           estimate D2E/DX2                !
 ! R8    R(8,9)                  1.07           estimate D2E/DX2                !
 ! R9    R(8,10)                 1.07           estimate D2E/DX2                !
 ! A1    A(2,1,3)              119.8865         estimate D2E/DX2                !
 ! A2    A(2,1,8)              119.8865         estimate D2E/DX2                !
 ! A3    A(3,1,8)              120.2269         estimate D2E/DX2                !
 ! A4    A(1,3,4)              119.8865         estimate D2E/DX2                !
 ! A5    A(1,3,5)              120.2269         estimate D2E/DX2                !
 ! A6    A(4,3,5)              119.8865         estimate D2E/DX2                !
 ! A7    A(3,5,6)              120.2269         estimate D2E/DX2                !
 ! A8    A(3,5,7)              119.8865         estimate D2E/DX2                !
 ! A9    A(6,5,7)              119.8865         estimate D2E/DX2                !
 ! A10   A(1,8,9)              120.2269         estimate D2E/DX2                !
 ! A11   A(1,8,10)             119.8865         estimate D2E/DX2                !
 ! A12   A(9,8,10)             119.8865         estimate D2E/DX2                !
 ! D1    D(2,1,3,4)            180.0            estimate D2E/DX2                !
 ! D2    D(2,1,3,5)              0.0            estimate D2E/DX2                !
 ! D3    D(8,1,3,4)              0.0            estimate D2E/DX2                !
 ! D4    D(8,1,3,5)            180.0            Scan                            !
 ! D5    D(2,1,8,9)            180.0            estimate D2E/DX2                !
 ! D6    D(2,1,8,10)             0.0            estimate D2E/DX2                !
 ! D7    D(3,1,8,9)              0.0            estimate D2E/DX2                !
 ! D8    D(3,1,8,10)           180.0            estimate D2E/DX2                !
 ! D9    D(1,3,5,6)              0.0            estimate D2E/DX2                !
 ! D10   D(1,3,5,7)            180.0            estimate D2E/DX2                !
 ! D11   D(4,3,5,6)            180.0            estimate D2E/DX2                !
 ! D12   D(4,3,5,7)              0.0            estimate D2E/DX2                !
 --------------------------------------------------------------------------------
 Trust Radius=3.00D-01 FncErr=1.00D-07 GrdErr=1.00D-06 EigMax=2.50D+02 EigMin=1.00D-04
 Number of optimizations in scan=  19
 Number of steps in this run=     43 maximum allowed number of steps=    100.
 GradGradGradGradGradGradGradGradGradGradGradGradGradGradGradGradGradGrad

                          Input orientation:                          
 ---------------------------------------------------------------------
 Center     Atomic      Atomic             Coordinates (Angstroms)
 Number     Number       Type             X           Y           Z
 ---------------------------------------------------------------------
      1          6           0        0.631903    0.439999    0.000000
      2          1           0        0.539330    1.505986    0.000000
      3          6           0       -0.631903   -0.439999    0.000000
      4          1           0       -0.539330   -1.505986    0.000000
      5          6           0       -1.860897    0.131089    0.000000
      6          1           0       -1.959802    1.196508    0.000000
      7          1           0       -2.735348   -0.485544    0.000000
      8          6           0        1.860897   -0.131089    0.000000
      9          1           0        1.959802   -1.196508    0.000000
     10          1           0        2.735348    0.485544    0.000000
 ---------------------------------------------------------------------
                    Distance matrix (angstroms):
                    1          2          3          4          5
     1  C    0.000000
     2  H    1.070000   0.000000
     3  C    1.540000   2.271265   0.000000
     4  H    2.271265   3.199295   1.070000   0.000000
     5  C    2.511867   2.766123   1.355200   2.103938   0.000000
     6  H    2.699859   2.518221   2.107479   3.053066   1.070000
     7  H    3.492135   3.832716   2.103938   2.421527   1.070000
     8  C    1.355200   2.103938   2.511867   2.766123   3.731017
     9  H    2.107479   3.053066   2.699859   2.518221   4.044781
    10  H    2.103938   2.421527   3.492135   3.832716   4.609892
                    6          7          8          9         10
     6  H    0.000000
     7  H    1.852234   0.000000
     8  C    4.044781   4.609892   0.000000
     9  H    4.592365   4.748673   1.070000   0.000000
    10  H    4.748673   5.556214   1.070000   1.852234   0.000000
 Stoichiometry    C4H6
 Framework group  C2H[SGH(C4H6)]
 Deg. of freedom     9
 Full point group                 C2H     NOp   4
 Largest Abelian subgroup         C2H     NOp   4
 Largest concise Abelian subgroup C2      NOp   2
                         Standard orientation:                         
 ---------------------------------------------------------------------
 Center     Atomic      Atomic             Coordinates (Angstroms)
 Number     Number       Type             X           Y           Z
 ---------------------------------------------------------------------
      1          6           0       -0.358947    0.681217    0.000000
      2          1           0       -1.428228    0.720443    0.000000
      3          6           0        0.358947   -0.681217    0.000000
      4          1           0        1.428228   -0.720443    0.000000
      5          6           0       -0.358947   -1.830650    0.000000
      6          1           0       -1.428442   -1.797778    0.000000
      7          1           0        0.145465   -2.774296    0.000000
      8          6           0        0.358947    1.830650    0.000000
      9          1           0        1.428442    1.797778    0.000000
     10          1           0       -0.145465    2.774296    0.000000
 ---------------------------------------------------------------------
 Rotational constants (GHZ):          38.9066132           4.3527853           3.9148055
 Standard basis: 6-31G(d) (6D, 7F)
 There are    28 symmetry adapted cartesian basis functions of AG  symmetry.
 There are     8 symmetry adapted cartesian basis functions of BG  symmetry.
 There are     8 symmetry adapted cartesian basis functions of AU  symmetry.
 There are    28 symmetry adapted cartesian basis functions of BU  symmetry.
 There are    28 symmetry adapted basis functions of AG  symmetry.
 There are     8 symmetry adapted basis functions of BG  symmetry.
 There are     8 symmetry adapted basis functions of AU  symmetry.
 There are    28 symmetry adapted basis functions of BU  symmetry.
    72 basis functions,   136 primitive gaussians,    72 cartesian basis functions
    15 alpha electrons       15 beta electrons
       nuclear repulsion energy       102.4724596192 Hartrees.
 NAtoms=   10 NActive=   10 NUniq=    5 SFac= 4.00D+00 NAtFMM=   60 NAOKFM=F Big=F
 Integral buffers will be    131072 words long.
 Raffenetti 2 integral format.
 Two-electron integral symmetry is turned on.
 One-electron integrals computed using PRISM.
 NBasis=    72 RedAO= T EigKep=  4.04D-03  NBF=    28     8     8    28
 NBsUse=    72 1.00D-06 EigRej= -1.00D+00 NBFU=    28     8     8    28
 ExpMin= 1.61D-01 ExpMax= 3.05D+03 ExpMxC= 4.57D+02 IAcc=3 IRadAn=         5 AccDes= 0.00D+00
 Harris functional with IExCor=  402 and IRadAn=       5 diagonalized for initial guess.
 HarFok:  IExCor=  402 AccDes= 0.00D+00 IRadAn=         5 IDoV= 1 UseB2=F ITyADJ=14
 ICtDFT=  3500011 ScaDFX=  1.000000  1.000000  1.000000  1.000000
 FoFCou: FMM=F IPFlag=           0 FMFlag=      100000 FMFlg1=           0
         NFxFlg=           0 DoJE=T BraDBF=F KetDBF=T FulRan=T
         wScrn=  0.000000 ICntrl=       500 IOpCl=  0 I1Cent=   200000004 NGrid=           0
         NMat0=    1 NMatS0=      1 NMatT0=    0 NMatD0=    1 NMtDS0=    0 NMtDT0=    0
 Petite list used in FoFCou.
 Initial guess orbital symmetries:
       Occupied  (AG) (BU) (AG) (BU) (AG) (BU) (AG) (BU) (AG) (BU)
                 (AG) (BU) (AG) (AU) (BG)
       Virtual   (AU) (BG) (BU) (AG) (BU) (BU) (AG) (AG) (BU) (AG)
                 (BU) (BU) (AG) (AU) (BG) (BU) (AG) (AG) (BU) (BG)
                 (AU) (AG) (BU) (AG) (BU) (AG) (BU) (BU) (AG) (AG)
                 (BU) (AU) (AG) (BU) (BG) (AU) (BG) (AU) (AG) (AG)
                 (BU) (BU) (BG) (BU) (AG) (AG) (AU) (BU) (BG) (AG)
                 (BU) (BU) (AG) (AG) (BU) (AG) (BU)
 The electronic state of the initial guess is 1-AG.
 Keep R1 ints in memory in symmetry-blocked form, NReq=4414629.
 Requested convergence on RMS density matrix=1.00D-08 within 128 cycles.
 Requested convergence on MAX density matrix=1.00D-06.
 Requested convergence on             energy=1.00D-06.
 No special actions if energy rises.
 Integral accuracy reduced to 1.0D-05 until final iterations.
 Initial convergence to 1.0D-05 achieved.  Increase integral accuracy.
 SCF Done:  E(RB3LYP) =  -155.984970988     A.U. after   11 cycles
            NFock= 11  Conv=0.72D-08     -V/T= 2.0106

 **********************************************************************

            Population analysis using the SCF Density.

 **********************************************************************

 Orbital symmetries:
       Occupied  (AG) (BU) (BU) (AG) (AG) (BU) (AG) (BU) (AG) (BU)
                 (BU) (AG) (AG) (AU) (BG)
       Virtual   (AU) (BG) (BU) (AG) (BU) (BU) (AG) (AG) (BU) (AG)
                 (BU) (BU) (AG) (AU) (BG) (BU) (AG) (BG) (BU) (AU)
                 (AG) (AG) (BU) (AG) (BU) (BU) (AG) (BU) (AG) (AG)
                 (BU) (AG) (BU) (AU) (BG) (AU) (BG) (AU) (AG) (AG)
                 (BU) (BU) (BG) (BU) (AG) (AG) (AU) (BU) (BG) (AG)
                 (BU) (BU) (AG) (AG) (BU) (AG) (BU)
 The electronic state is 1-AG.
 Alpha  occ. eigenvalues --  -10.19692 -10.19672 -10.18035 -10.18035  -0.79024
 Alpha  occ. eigenvalues --   -0.72839  -0.59479  -0.55703  -0.46403  -0.45694
 Alpha  occ. eigenvalues --   -0.39195  -0.38736  -0.34565  -0.30924  -0.22860
 Alpha virt. eigenvalues --   -0.01825   0.07050   0.12208   0.12855   0.13114
 Alpha virt. eigenvalues --    0.18045   0.18552   0.21255   0.31693   0.32356
 Alpha virt. eigenvalues --    0.37304   0.46995   0.52256   0.53503   0.58032
 Alpha virt. eigenvalues --    0.60548   0.61621   0.65489   0.66783   0.67288
 Alpha virt. eigenvalues --    0.68704   0.85846   0.86929   0.87650   0.89776
 Alpha virt. eigenvalues --    0.93424   0.94224   0.96917   1.06649   1.09315
 Alpha virt. eigenvalues --    1.13638   1.31598   1.35128   1.35886   1.43329
 Alpha virt. eigenvalues --    1.52694   1.65309   1.75289   1.75729   1.90231
 Alpha virt. eigenvalues --    1.96391   2.05538   2.09915   2.13244   2.16210
 Alpha virt. eigenvalues --    2.29191   2.38753   2.40667   2.40740   2.59168
 Alpha virt. eigenvalues --    2.70498   2.85612   2.91544   4.06064   4.13029
 Alpha virt. eigenvalues --    4.21432   4.42757
          Condensed to atoms (all electrons):
               1          2          3          4          5          6
     1  C    4.784482   0.368244   0.429708  -0.043506  -0.029488  -0.011098
     2  H    0.368244   0.589595  -0.043506   0.003818  -0.003988   0.004566
     3  C    0.429708  -0.043506   4.784482   0.368244   0.636810  -0.036894
     4  H   -0.043506   0.003818   0.368244   0.589595  -0.051195   0.005731
     5  C   -0.029488  -0.003988   0.636810  -0.051195   5.049587   0.373315
     6  H   -0.011098   0.004566  -0.036894   0.005731   0.373315   0.560499
     7  H    0.004105  -0.000005  -0.024600  -0.006700   0.365081  -0.040558
     8  C    0.636810  -0.051195  -0.029488  -0.003988   0.002530   0.000408
     9  H   -0.036894   0.005731  -0.011098   0.004566   0.000408   0.000015
    10  H   -0.024600  -0.006700   0.004105  -0.000005  -0.000203  -0.000006
               7          8          9         10
     1  C    0.004105   0.636810  -0.036894  -0.024600
     2  H   -0.000005  -0.051195   0.005731  -0.006700
     3  C   -0.024600  -0.029488  -0.011098   0.004105
     4  H   -0.006700  -0.003988   0.004566  -0.000005
     5  C    0.365081   0.002530   0.000408  -0.000203
     6  H   -0.040558   0.000408   0.000015  -0.000006
     7  H    0.559727  -0.000203  -0.000006   0.000003
     8  C   -0.000203   5.049587   0.373315   0.365081
     9  H   -0.000006   0.373315   0.560499  -0.040558
    10  H    0.000003   0.365081  -0.040558   0.559727
 Mulliken charges:
               1
     1  C   -0.077763
     2  H    0.133440
     3  C   -0.077763
     4  H    0.133440
     5  C   -0.342857
     6  H    0.144023
     7  H    0.143157
     8  C   -0.342857
     9  H    0.144023
    10  H    0.143157
 Sum of Mulliken charges =  -0.00000
 Mulliken charges with hydrogens summed into heavy atoms:
               1
     1  C    0.055677
     3  C    0.055677
     5  C   -0.055677
     8  C   -0.055677
 Electronic spatial extent (au):  <R**2>=            340.1307
 Charge=             -0.0000 electrons
 Dipole moment (field-independent basis, Debye):
    X=              0.0000    Y=              0.0000    Z=              0.0000  Tot=              0.0000
 Quadrupole moment (field-independent basis, Debye-Ang):
   XX=            -22.2377   YY=            -23.0860   ZZ=            -28.0290
   XY=             -0.3027   XZ=              0.0000   YZ=              0.0000
 Traceless Quadrupole moment (field-independent basis, Debye-Ang):
   XX=              2.2132   YY=              1.3649   ZZ=             -3.5781
   XY=             -0.3027   XZ=              0.0000   YZ=              0.0000
 Octapole moment (field-independent basis, Debye-Ang**2):
  XXX=             -0.0000  YYY=             -0.0000  ZZZ=              0.0000  XYY=             -0.0000
  XXY=             -0.0000  XXZ=              0.0000  XZZ=             -0.0000  YZZ=              0.0000
  YYZ=              0.0000  XYZ=              0.0000
 Hexadecapole moment (field-independent basis, Debye-Ang**3):
 XXXX=            -68.0050 YYYY=           -336.6451 ZZZZ=            -29.2501 XXXY=            -16.2958
 XXXZ=              0.0000 YYYX=            -23.1968 YYYZ=              0.0000 ZZZX=              0.0000
 ZZZY=              0.0000 XXYY=            -69.2790 XXZZ=            -18.2528 YYZZ=            -72.3316
 XXYZ=              0.0000 YYXZ=              0.0000 ZZXY=             -6.6628
 N-N= 1.024724596192D+02 E-N=-5.653477877233D+02  KE= 1.543419170097D+02
 Symmetry AG   KE= 7.656536587848D+01
 Symmetry BG   KE= 2.224361029131D+00
 Symmetry AU   KE= 1.956104823155D+00
 Symmetry BU   KE= 7.359608527890D+01
 Calling FoFJK, ICntrl=      2127 FMM=F ISym2X=1 I1Cent= 0 IOpClX= 0 NMat=1 NMatS=1 NMatT=0.
 ***** Axes restored to original set *****
 -------------------------------------------------------------------
 Center     Atomic                   Forces (Hartrees/Bohr)
 Number     Number              X              Y              Z
 -------------------------------------------------------------------
      1        6          -0.007966363   -0.058815693   -0.000000000
      2        1          -0.006859741    0.011576566   -0.000000000
      3        6           0.007966363    0.058815693   -0.000000000
      4        1           0.006859741   -0.011576566   -0.000000000
      5        6           0.028535530   -0.018801438   -0.000000000
      6        1          -0.004913612    0.011215159   -0.000000000
      7        1          -0.012109421   -0.002858791   -0.000000000
      8        6          -0.028535530    0.018801438   -0.000000000
      9        1           0.004913612   -0.011215159   -0.000000000
     10        1           0.012109421    0.002858791   -0.000000000
 -------------------------------------------------------------------
 Cartesian Forces:  Max     0.058815693 RMS     0.018576556

 GradGradGradGradGradGradGradGradGradGradGradGradGradGradGradGradGradGrad
 Berny optimization.
 FormGI is forming the generalized inverse of G from B-inverse, IUseBI=4.
 Internal  Forces:  Max     0.042640017 RMS     0.010555560
 Search for a local minimum.
 Step number   1 out of a maximum of   43 on scan point     1 out of    19
 All quantities printed in internal units (Hartrees-Bohrs-Radians)
 Mixed Optimization -- RFO/linear search
 Second derivative matrix not updated -- first step.
 ITU=  0
     Eigenvalues ---    0.00848   0.01459   0.02681   0.02681   0.02681
     Eigenvalues ---    0.02681   0.16000   0.16000   0.16000   0.16000
     Eigenvalues ---    0.16000   0.16000   0.22000   0.22000   0.28519
     Eigenvalues ---    0.37230   0.37230   0.37230   0.37230   0.37230
     Eigenvalues ---    0.37230   0.53930   0.539301000.000001000.00000
     Eigenvalues --- 1000.000001000.000001000.000001000.000001000.00000
     Eigenvalues --- 1000.000001000.000001000.00000
 RFO step:  Lambda=-1.19725916D-02 EMin= 8.47961735D-03
 Linear search not attempted -- first point.
 Iteration  1 RMS(Cart)=  0.03757559 RMS(Int)=  0.00065052
 Iteration  2 RMS(Cart)=  0.00110750 RMS(Int)=  0.00000031
 Iteration  3 RMS(Cart)=  0.00000037 RMS(Int)=  0.00000000
 Iteration  1 RMS(Cart)=  0.00000000 RMS(Int)=  0.00000000
 ClnCor:  largest displacement from symmetrization is 1.17D-12 for atom     8.
 Variable       Old X    -DE/DX   Delta X   Delta X   Delta X     New X
                                 (Linear)    (Quad)   (Total)
    R1        2.02201   0.01213   0.00000   0.03156   0.03156   2.05356
    R2        2.91018  -0.04264   0.00000  -0.14349  -0.14349   2.76669
    R3        2.56096  -0.01484   0.00000  -0.02692  -0.02692   2.53403
    R4        2.02201   0.01213   0.00000   0.03156   0.03156   2.05356
    R5        2.56096  -0.01484   0.00000  -0.02692  -0.02692   2.53403
    R6        2.02201   0.01162   0.00000   0.03024   0.03024   2.05225
    R7        2.02201   0.01154   0.00000   0.03004   0.03004   2.05205
    R8        2.02201   0.01162   0.00000   0.03024   0.03024   2.05225
    R9        2.02201   0.01154   0.00000   0.03004   0.03004   2.05205
    A1        2.09241  -0.01128   0.00000  -0.05748  -0.05748   2.03493
    A2        2.09241   0.00052   0.00000   0.01110   0.01110   2.10351
    A3        2.09836   0.01076   0.00000   0.04639   0.04639   2.14474
    A4        2.09241  -0.01128   0.00000  -0.05748  -0.05748   2.03493
    A5        2.09836   0.01076   0.00000   0.04639   0.04639   2.14474
    A6        2.09241   0.00052   0.00000   0.01110   0.01110   2.10351
    A7        2.09836   0.00207   0.00000   0.01203   0.01203   2.11039
    A8        2.09241   0.00366   0.00000   0.02128   0.02128   2.11369
    A9        2.09241  -0.00573   0.00000  -0.03331  -0.03331   2.05911
   A10        2.09836   0.00207   0.00000   0.01203   0.01203   2.11039
   A11        2.09241   0.00366   0.00000   0.02128   0.02128   2.11369
   A12        2.09241  -0.00573   0.00000  -0.03331  -0.03331   2.05911
    D1        3.14159  -0.00000   0.00000  -0.00000   0.00000   3.14159
    D2        0.00000  -0.00000   0.00000  -0.00000   0.00000   0.00000
    D3        0.00000  -0.00000   0.00000  -0.00000   0.00000   0.00000
    D4        3.14159  -0.00000   0.00000   0.00000   0.00000   3.14159
    D5        3.14159   0.00000   0.00000  -0.00000   0.00000   3.14159
    D6        0.00000   0.00000   0.00000  -0.00000   0.00000   0.00000
    D7        0.00000   0.00000   0.00000  -0.00000   0.00000   0.00000
    D8        3.14159  -0.00000   0.00000  -0.00000   0.00000   3.14159
    D9        0.00000   0.00000   0.00000   0.00000   0.00000   0.00000
   D10        3.14159  -0.00000   0.00000  -0.00000   0.00000   3.14159
   D11        3.14159   0.00000   0.00000   0.00000   0.00000   3.14159
   D12        0.00000   0.00000   0.00000   0.00000   0.00000   0.00000
         Item               Value     Threshold  Converged?
 Maximum Force            0.042640     0.000450     NO 
 RMS     Force            0.010719     0.000300     NO 
 Maximum Displacement     0.101287     0.001800     NO 
 RMS     Displacement     0.037963     0.001200     NO 
 Predicted change in Energy=-6.239133D-03
 GradGradGradGradGradGradGradGradGradGradGradGradGradGradGradGradGradGrad

                          Input orientation:                          
 ---------------------------------------------------------------------
 Center     Atomic      Atomic             Coordinates (Angstroms)
 Number     Number       Type             X           Y           Z
 ---------------------------------------------------------------------
      1          6           0        0.612058    0.401570    0.000000
      2          1           0        0.485731    1.480901    0.000000
      3          6           0       -0.612058   -0.401570    0.000000
      4          1           0       -0.485731   -1.480901    0.000000
      5          6           0       -1.838536    0.140563    0.000000
      6          1           0       -1.972196    1.218310    0.000000
      7          1           0       -2.727530   -0.483024    0.000000
      8          6           0        1.838536   -0.140563    0.000000
      9          1           0        1.972196   -1.218310    0.000000
     10          1           0        2.727530    0.483024    0.000000
 ---------------------------------------------------------------------
                    Distance matrix (angstroms):
                    1          2          3          4          5
     1  C    0.000000
     2  H    1.086699   0.000000
     3  C    1.464068   2.179183   0.000000
     4  H    2.179183   3.117052   1.086699   0.000000
     5  C    2.464454   2.683044   1.340953   2.111688   0.000000
     6  H    2.710246   2.471914   2.115180   3.081448   1.086004
     7  H    3.454759   3.765906   2.117039   2.453858   1.085897
     8  C    1.340953   2.111688   2.464454   2.683044   3.687802
     9  H    2.115180   3.081448   2.710246   2.471914   4.045765
    10  H    2.117039   2.453858   3.454759   3.765906   4.578890
                    6          7          8          9         10
     6  H    0.000000
     7  H    1.861469   0.000000
     8  C    4.045765   4.578890   0.000000
     9  H    4.636308   4.756897   1.086004   0.000000
    10  H    4.756897   5.539939   1.085897   1.861469   0.000000
 Stoichiometry    C4H6
 Framework group  C2H[SGH(C4H6)]
 Deg. of freedom     9
 Full point group                 C2H     NOp   4
 Largest Abelian subgroup         C2H     NOp   4
 Largest concise Abelian subgroup C2      NOp   2
                         Standard orientation:                         
 ---------------------------------------------------------------------
 Center     Atomic      Atomic             Coordinates (Angstroms)
 Number     Number       Type             X           Y           Z
 ---------------------------------------------------------------------
      1          6           0       -0.334489    0.651146    0.000000
      2          1           0       -1.421130    0.639839    0.000000
      3          6           0        0.334489   -0.651146    0.000000
      4          1           0        1.421130   -0.639839    0.000000
      5          6           0       -0.334489   -1.813309    0.000000
      6          1           0       -1.420331   -1.832075    0.000000
      7          1           0        0.191439   -2.763346    0.000000
      8          6           0        0.334489    1.813309    0.000000
      9          1           0        1.420331    1.832075    0.000000
     10          1           0       -0.191439    2.763346    0.000000
 ---------------------------------------------------------------------
 Rotational constants (GHZ):          41.3695660           4.4551348           4.0220010
 Standard basis: 6-31G(d) (6D, 7F)
 There are    28 symmetry adapted cartesian basis functions of AG  symmetry.
 There are     8 symmetry adapted cartesian basis functions of BG  symmetry.
 There are     8 symmetry adapted cartesian basis functions of AU  symmetry.
 There are    28 symmetry adapted cartesian basis functions of BU  symmetry.
 There are    28 symmetry adapted basis functions of AG  symmetry.
 There are     8 symmetry adapted basis functions of BG  symmetry.
 There are     8 symmetry adapted basis functions of AU  symmetry.
 There are    28 symmetry adapted basis functions of BU  symmetry.
    72 basis functions,   136 primitive gaussians,    72 cartesian basis functions
    15 alpha electrons       15 beta electrons
       nuclear repulsion energy       103.6711088770 Hartrees.
 NAtoms=   10 NActive=   10 NUniq=    5 SFac= 4.00D+00 NAtFMM=   60 NAOKFM=F Big=F
 Integral buffers will be    131072 words long.
 Raffenetti 2 integral format.
 Two-electron integral symmetry is turned on.
 One-electron integrals computed using PRISM.
 NBasis=    72 RedAO= T EigKep=  3.60D-03  NBF=    28     8     8    28
 NBsUse=    72 1.00D-06 EigRej= -1.00D+00 NBFU=    28     8     8    28
 Initial guess from the checkpoint file:  "butadiene_scan_new.chk"
 B after Tr=     0.000000    0.000000    0.000000
         Rot=    0.999980   -0.000000   -0.000000   -0.006309 Ang=  -0.72 deg.
 Initial guess orbital symmetries:
       Occupied  (AG) (BU) (BU) (AG) (AG) (BU) (AG) (BU) (AG) (BU)
                 (BU) (AG) (AG) (AU) (BG)
       Virtual   (AU) (BG) (BU) (AG) (BU) (BU) (AG) (AG) (BU) (AG)
                 (BU) (BU) (AG) (AU) (BG) (BU) (AG) (BG) (BU) (AU)
                 (AG) (AG) (BU) (AG) (BU) (BU) (AG) (BU) (AG) (AG)
                 (BU) (AG) (BU) (AU) (BG) (AU) (BG) (AU) (AG) (AG)
                 (BU) (BU) (BG) (BU) (AG) (AG) (AU) (BU) (BG) (AG)
                 (BU) (BU) (AG) (AG) (BU) (AG) (BU)
 ExpMin= 1.61D-01 ExpMax= 3.05D+03 ExpMxC= 4.57D+02 IAcc=3 IRadAn=         5 AccDes= 0.00D+00
 Harris functional with IExCor=  402 and IRadAn=       5 diagonalized for initial guess.
 HarFok:  IExCor=  402 AccDes= 0.00D+00 IRadAn=         5 IDoV= 1 UseB2=F ITyADJ=14
 ICtDFT=  3500011 ScaDFX=  1.000000  1.000000  1.000000  1.000000
 FoFCou: FMM=F IPFlag=           0 FMFlag=      100000 FMFlg1=           0
         NFxFlg=           0 DoJE=T BraDBF=F KetDBF=T FulRan=T
         wScrn=  0.000000 ICntrl=       500 IOpCl=  0 I1Cent=   200000004 NGrid=           0
         NMat0=    1 NMatS0=      1 NMatT0=    0 NMatD0=    1 NMtDS0=    0 NMtDT0=    0
 Petite list used in FoFCou.
 Keep R1 ints in memory in symmetry-blocked form, NReq=4414629.
 Requested convergence on RMS density matrix=1.00D-08 within 128 cycles.
 Requested convergence on MAX density matrix=1.00D-06.
 Requested convergence on             energy=1.00D-06.
 No special actions if energy rises.
 Integral accuracy reduced to 1.0D-05 until final iterations.
 Initial convergence to 1.0D-05 achieved.  Increase integral accuracy.
 SCF Done:  E(RB3LYP) =  -155.991835223     A.U. after   10 cycles
            NFock= 10  Conv=0.59D-08     -V/T= 2.0102
 Calling FoFJK, ICntrl=      2127 FMM=F ISym2X=1 I1Cent= 0 IOpClX= 0 NMat=1 NMatS=1 NMatT=0.
 ***** Axes restored to original set *****
 -------------------------------------------------------------------
 Center     Atomic                   Forces (Hartrees/Bohr)
 Number     Number              X              Y              Z
 -------------------------------------------------------------------
      1        6          -0.001607557   -0.009970200   -0.000000000
      2        1           0.000217975    0.001972114   -0.000000000
      3        6           0.001607557    0.009970200   -0.000000000
      4        1          -0.000217975   -0.001972114   -0.000000000
      5        6           0.001211450   -0.005204735   -0.000000000
      6        1          -0.001829686    0.000621834   -0.000000000
      7        1          -0.001227019    0.001828033   -0.000000000
      8        6          -0.001211450    0.005204735   -0.000000000
      9        1           0.001829686   -0.000621834   -0.000000000
     10        1           0.001227019   -0.001828033   -0.000000000
 -------------------------------------------------------------------
 Cartesian Forces:  Max     0.009970200 RMS     0.003088306

 GradGradGradGradGradGradGradGradGradGradGradGradGradGradGradGradGradGrad
 Berny optimization.
 Using GEDIIS/GDIIS optimizer.
 FormGI is forming the generalized inverse of G from B-inverse, IUseBI=4.
 Internal  Forces:  Max     0.004579050 RMS     0.001760016
 Search for a local minimum.
 Step number   2 out of a maximum of   43 on scan point     1 out of    19
 All quantities printed in internal units (Hartrees-Bohrs-Radians)
 Mixed Optimization -- RFO/linear search
 Update second derivatives using D2CorX and points    1    2
 DE= -6.86D-03 DEPred=-6.24D-03 R= 1.10D+00
 TightC=F SS=  1.41D+00  RLast= 2.06D-01 DXNew= 5.0454D-01 6.1654D-01
 Trust test= 1.10D+00 RLast= 2.06D-01 DXMaxT set to 5.05D-01
 ITU=  1  0
 Use linear search instead of GDIIS.
     Eigenvalues ---    0.00883   0.01505   0.02681   0.02681   0.02681
     Eigenvalues ---    0.02681   0.14995   0.16000   0.16000   0.16000
     Eigenvalues ---    0.16000   0.16405   0.19998   0.22000   0.29649
     Eigenvalues ---    0.36814   0.37230   0.37230   0.37230   0.37230
     Eigenvalues ---    0.37771   0.53930   0.548401000.000001000.00000
     Eigenvalues --- 1000.000001000.000001000.000001000.000001000.00000
     Eigenvalues --- 1000.000001000.000001000.00000
 RFO step:  Lambda=-3.86514720D-04 EMin= 8.82828358D-03
 Quartic linear search produced a step of  0.11241.
 Iteration  1 RMS(Cart)=  0.01516001 RMS(Int)=  0.00008580
 Iteration  2 RMS(Cart)=  0.00013122 RMS(Int)=  0.00000000
 Iteration  3 RMS(Cart)=  0.00000000 RMS(Int)=  0.00000000
 Iteration  1 RMS(Cart)=  0.00000000 RMS(Int)=  0.00000000
 ClnCor:  largest displacement from symmetrization is 4.68D-11 for atom     8.
 Variable       Old X    -DE/DX   Delta X   Delta X   Delta X     New X
                                 (Linear)    (Quad)   (Total)
    R1        2.05356   0.00193   0.00355   0.00281   0.00636   2.05992
    R2        2.76669  -0.00250  -0.01613   0.00433  -0.01180   2.75488
    R3        2.53403   0.00057  -0.00303   0.00360   0.00057   2.53460
    R4        2.05356   0.00193   0.00355   0.00281   0.00636   2.05992
    R5        2.53403   0.00057  -0.00303   0.00360   0.00057   2.53460
    R6        2.05225   0.00084   0.00340  -0.00032   0.00308   2.05533
    R7        2.05205  -0.00005   0.00338  -0.00295   0.00042   2.05247
    R8        2.05225   0.00084   0.00340  -0.00032   0.00308   2.05533
    R9        2.05205  -0.00005   0.00338  -0.00295   0.00042   2.05247
    A1        2.03493  -0.00183  -0.00646  -0.00216  -0.00863   2.02631
    A2        2.10351  -0.00275   0.00125  -0.01617  -0.01492   2.08859
    A3        2.14474   0.00458   0.00521   0.01833   0.02354   2.16829
    A4        2.03493  -0.00183  -0.00646  -0.00216  -0.00863   2.02631
    A5        2.14474   0.00458   0.00521   0.01833   0.02354   2.16829
    A6        2.10351  -0.00275   0.00125  -0.01617  -0.01492   2.08859
    A7        2.11039   0.00087   0.00135   0.00472   0.00607   2.11646
    A8        2.11369   0.00182   0.00239   0.01026   0.01265   2.12634
    A9        2.05911  -0.00270  -0.00374  -0.01498  -0.01872   2.04039
   A10        2.11039   0.00087   0.00135   0.00472   0.00607   2.11646
   A11        2.11369   0.00182   0.00239   0.01026   0.01265   2.12634
   A12        2.05911  -0.00270  -0.00374  -0.01498  -0.01872   2.04039
    D1        3.14159  -0.00000   0.00000   0.00000   0.00000   3.14159
    D2        0.00000  -0.00000   0.00000   0.00000   0.00000   0.00000
    D3        0.00000  -0.00000   0.00000   0.00000   0.00000   0.00000
    D4        3.14159   0.00000   0.00000   0.00000   0.00000   3.14159
    D5        3.14159   0.00000   0.00000  -0.00000   0.00000   3.14159
    D6        0.00000   0.00000   0.00000   0.00000   0.00000   0.00000
    D7        0.00000   0.00000   0.00000  -0.00000   0.00000   0.00000
    D8        3.14159  -0.00000   0.00000   0.00000   0.00000   3.14159
    D9        0.00000   0.00000   0.00000   0.00000   0.00000   0.00000
   D10        3.14159  -0.00000   0.00000   0.00000   0.00000   3.14159
   D11        3.14159   0.00000   0.00000   0.00000   0.00000   3.14159
   D12        0.00000   0.00000   0.00000  -0.00000   0.00000   0.00000
         Item               Value     Threshold  Converged?
 Maximum Force            0.004579     0.000450     NO 
 RMS     Force            0.001787     0.000300     NO 
 Maximum Displacement     0.047119     0.001800     NO 
 RMS     Displacement     0.015073     0.001200     NO 
 Predicted change in Energy=-2.867775D-04
 GradGradGradGradGradGradGradGradGradGradGradGradGradGradGradGradGradGrad

                          Input orientation:                          
 ---------------------------------------------------------------------
 Center     Atomic      Atomic             Coordinates (Angstroms)
 Number     Number       Type             X           Y           Z
 ---------------------------------------------------------------------
      1          6           0        0.615122    0.391071    0.000000
      2          1           0        0.494601    1.474451    0.000000
      3          6           0       -0.615122   -0.391071    0.000000
      4          1           0       -0.494601   -1.474451    0.000000
      5          6           0       -1.846809    0.139881    0.000000
      6          1           0       -1.997130    1.217075    0.000000
      7          1           0       -2.738138   -0.480757    0.000000
      8          6           0        1.846809   -0.139881    0.000000
      9          1           0        1.997130   -1.217075    0.000000
     10          1           0        2.738138    0.480757    0.000000
 ---------------------------------------------------------------------
                    Distance matrix (angstroms):
                    1          2          3          4          5
     1  C    0.000000
     2  H    1.090064   0.000000
     3  C    1.457822   2.170636   0.000000
     4  H    2.170636   3.110394   1.090064   0.000000
     5  C    2.474712   2.695048   1.341255   2.105834   0.000000
     6  H    2.739734   2.504989   2.120396   3.082516   1.087632
     7  H    3.464742   3.778022   2.124910   2.453749   1.086121
     8  C    1.341255   2.105834   2.474712   2.695048   3.704198
     9  H    2.120396   3.082516   2.739734   2.504989   4.076420
    10  H    2.124910   2.453749   3.464742   3.778022   4.597602
                    6          7          8          9         10
     6  H    0.000000
     7  H    1.852492   0.000000
     8  C    4.076420   4.597602   0.000000
     9  H    4.677521   4.792174   1.087632   0.000000
    10  H    4.792174   5.560046   1.086121   1.852492   0.000000
 Stoichiometry    C4H6
 Framework group  C2H[SGH(C4H6)]
 Deg. of freedom     9
 Full point group                 C2H     NOp   4
 Largest Abelian subgroup         C2H     NOp   4
 Largest concise Abelian subgroup C2      NOp   2
                         Standard orientation:                         
 ---------------------------------------------------------------------
 Center     Atomic      Atomic             Coordinates (Angstroms)
 Number     Number       Type             X           Y           Z
 ---------------------------------------------------------------------
      1          6           0       -0.326614    0.651640    0.000000
      2          1           0       -1.416633    0.641708    0.000000
      3          6           0        0.326614   -0.651640    0.000000
      4          1           0        1.416633   -0.641708    0.000000
      5          6           0       -0.326614   -1.823073    0.000000
      6          1           0       -1.413503   -1.863279    0.000000
      7          1           0        0.200346   -2.772795    0.000000
      8          6           0        0.326614    1.823073    0.000000
      9          1           0        1.413503    1.863279    0.000000
     10          1           0       -0.200346    2.772795    0.000000
 ---------------------------------------------------------------------
 Rotational constants (GHZ):          42.2571395           4.4100654           3.9933129
 Standard basis: 6-31G(d) (6D, 7F)
 There are    28 symmetry adapted cartesian basis functions of AG  symmetry.
 There are     8 symmetry adapted cartesian basis functions of BG  symmetry.
 There are     8 symmetry adapted cartesian basis functions of AU  symmetry.
 There are    28 symmetry adapted cartesian basis functions of BU  symmetry.
 There are    28 symmetry adapted basis functions of AG  symmetry.
 There are     8 symmetry adapted basis functions of BG  symmetry.
 There are     8 symmetry adapted basis functions of AU  symmetry.
 There are    28 symmetry adapted basis functions of BU  symmetry.
    72 basis functions,   136 primitive gaussians,    72 cartesian basis functions
    15 alpha electrons       15 beta electrons
       nuclear repulsion energy       103.5418298011 Hartrees.
 NAtoms=   10 NActive=   10 NUniq=    5 SFac= 4.00D+00 NAtFMM=   60 NAOKFM=F Big=F
 Integral buffers will be    131072 words long.
 Raffenetti 2 integral format.
 Two-electron integral symmetry is turned on.
 One-electron integrals computed using PRISM.
 NBasis=    72 RedAO= T EigKep=  3.62D-03  NBF=    28     8     8    28
 NBsUse=    72 1.00D-06 EigRej= -1.00D+00 NBFU=    28     8     8    28
 Initial guess from the checkpoint file:  "butadiene_scan_new.chk"
 B after Tr=    -0.000000   -0.000000    0.000000
         Rot=    0.999998   -0.000000   -0.000000   -0.001881 Ang=  -0.22 deg.
 Initial guess orbital symmetries:
       Occupied  (AG) (BU) (AG) (BU) (AG) (BU) (AG) (BU) (BU) (AG)
                 (AG) (BU) (AG) (AU) (BG)
       Virtual   (AU) (BG) (BU) (AG) (BU) (AG) (BU) (AG) (BU) (AG)
                 (BU) (BU) (AG) (AU) (BG) (AG) (BU) (BG) (BU) (AU)
                 (AG) (AG) (BU) (AG) (BU) (AG) (BU) (BU) (AG) (AG)
                 (BU) (AG) (AU) (BU) (BG) (AU) (BG) (AU) (AG) (AG)
                 (BU) (BU) (BG) (BU) (AG) (AG) (BU) (AU) (BG) (AG)
                 (BU) (BU) (AG) (AG) (BU) (AG) (BU)
 ExpMin= 1.61D-01 ExpMax= 3.05D+03 ExpMxC= 4.57D+02 IAcc=3 IRadAn=         5 AccDes= 0.00D+00
 Harris functional with IExCor=  402 and IRadAn=       5 diagonalized for initial guess.
 HarFok:  IExCor=  402 AccDes= 0.00D+00 IRadAn=         5 IDoV= 1 UseB2=F ITyADJ=14
 ICtDFT=  3500011 ScaDFX=  1.000000  1.000000  1.000000  1.000000
 FoFCou: FMM=F IPFlag=           0 FMFlag=      100000 FMFlg1=           0
         NFxFlg=           0 DoJE=T BraDBF=F KetDBF=T FulRan=T
         wScrn=  0.000000 ICntrl=       500 IOpCl=  0 I1Cent=   200000004 NGrid=           0
         NMat0=    1 NMatS0=      1 NMatT0=    0 NMatD0=    1 NMtDS0=    0 NMtDT0=    0
 Petite list used in FoFCou.
 Keep R1 ints in memory in symmetry-blocked form, NReq=4414629.
 Requested convergence on RMS density matrix=1.00D-08 within 128 cycles.
 Requested convergence on MAX density matrix=1.00D-06.
 Requested convergence on             energy=1.00D-06.
 No special actions if energy rises.
 Integral accuracy reduced to 1.0D-05 until final iterations.
 Initial convergence to 1.0D-05 achieved.  Increase integral accuracy.
 SCF Done:  E(RB3LYP) =  -155.992129950     A.U. after    9 cycles
            NFock=  9  Conv=0.55D-08     -V/T= 2.0103
 Calling FoFJK, ICntrl=      2127 FMM=F ISym2X=1 I1Cent= 0 IOpClX= 0 NMat=1 NMatS=1 NMatT=0.
 ***** Axes restored to original set *****
 -------------------------------------------------------------------
 Center     Atomic                   Forces (Hartrees/Bohr)
 Number     Number              X              Y              Z
 -------------------------------------------------------------------
      1        6           0.000178952   -0.000536754   -0.000000000
      2        1           0.000367826    0.000315806   -0.000000000
      3        6          -0.000178952    0.000536754   -0.000000000
      4        1          -0.000367826   -0.000315806   -0.000000000
      5        6           0.001087327   -0.000775870   -0.000000000
      6        1          -0.000528098    0.000085681   -0.000000000
      7        1           0.000108189    0.000371460   -0.000000000
      8        6          -0.001087327    0.000775870   -0.000000000
      9        1           0.000528098   -0.000085681   -0.000000000
     10        1          -0.000108189   -0.000371460   -0.000000000
 -------------------------------------------------------------------
 Cartesian Forces:  Max     0.001087327 RMS     0.000430142

 GradGradGradGradGradGradGradGradGradGradGradGradGradGradGradGradGradGrad
 Berny optimization.
 Using GEDIIS/GDIIS optimizer.
 FormGI is forming the generalized inverse of G from B-inverse, IUseBI=4.
 Internal  Forces:  Max     0.000738976 RMS     0.000317152
 Search for a local minimum.
 Step number   3 out of a maximum of   43 on scan point     1 out of    19
 All quantities printed in internal units (Hartrees-Bohrs-Radians)
 Mixed Optimization -- En-DIIS/RFO-DIIS
 Update second derivatives using D2CorX and points    1    2    3
 DE= -2.95D-04 DEPred=-2.87D-04 R= 1.03D+00
 TightC=F SS=  1.41D+00  RLast= 5.51D-02 DXNew= 8.4853D-01 1.6534D-01
 Trust test= 1.03D+00 RLast= 5.51D-02 DXMaxT set to 5.05D-01
 ITU=  1  1  0
 Use linear search instead of GDIIS.
     Eigenvalues ---    0.00879   0.01499   0.02681   0.02681   0.02681
     Eigenvalues ---    0.02681   0.13328   0.16000   0.16000   0.16000
     Eigenvalues ---    0.16128   0.16513   0.21376   0.22000   0.30014
     Eigenvalues ---    0.36587   0.37230   0.37230   0.37230   0.37251
     Eigenvalues ---    0.38051   0.53930   0.551021000.000001000.00000
     Eigenvalues --- 1000.000001000.000001000.000001000.000001000.00000
     Eigenvalues --- 1000.000001000.000001000.00000
 RFO step:  Lambda=-1.33311974D-05 EMin= 8.78678949D-03
 Quartic linear search produced a step of  0.08935.
 Iteration  1 RMS(Cart)=  0.00266263 RMS(Int)=  0.00000529
 Iteration  2 RMS(Cart)=  0.00000507 RMS(Int)=  0.00000000
 Iteration  3 RMS(Cart)=  0.00000000 RMS(Int)=  0.00000000
 Iteration  1 RMS(Cart)=  0.00000000 RMS(Int)=  0.00000000
 ClnCor:  largest displacement from symmetrization is 2.83D-12 for atom     8.
 Variable       Old X    -DE/DX   Delta X   Delta X   Delta X     New X
                                 (Linear)    (Quad)   (Total)
    R1        2.05992   0.00027   0.00057   0.00052   0.00109   2.06101
    R2        2.75488  -0.00005  -0.00105   0.00008  -0.00097   2.75391
    R3        2.53460  -0.00074   0.00005  -0.00162  -0.00157   2.53304
    R4        2.05992   0.00027   0.00057   0.00052   0.00109   2.06101
    R5        2.53460  -0.00074   0.00005  -0.00162  -0.00157   2.53304
    R6        2.05533   0.00016   0.00027   0.00038   0.00065   2.05598
    R7        2.05247  -0.00030   0.00004  -0.00080  -0.00077   2.05171
    R8        2.05533   0.00016   0.00027   0.00038   0.00065   2.05598
    R9        2.05247  -0.00030   0.00004  -0.00080  -0.00077   2.05171
    A1        2.02631   0.00034  -0.00077   0.00284   0.00206   2.02837
    A2        2.08859  -0.00048  -0.00133  -0.00225  -0.00358   2.08501
    A3        2.16829   0.00014   0.00210  -0.00058   0.00152   2.16980
    A4        2.02631   0.00034  -0.00077   0.00284   0.00206   2.02837
    A5        2.16829   0.00014   0.00210  -0.00058   0.00152   2.16980
    A6        2.08859  -0.00048  -0.00133  -0.00225  -0.00358   2.08501
    A7        2.11646   0.00053   0.00054   0.00329   0.00383   2.12029
    A8        2.12634  -0.00002   0.00113  -0.00082   0.00031   2.12665
    A9        2.04039  -0.00052  -0.00167  -0.00246  -0.00414   2.03625
   A10        2.11646   0.00053   0.00054   0.00329   0.00383   2.12029
   A11        2.12634  -0.00002   0.00113  -0.00082   0.00031   2.12665
   A12        2.04039  -0.00052  -0.00167  -0.00246  -0.00414   2.03625
    D1        3.14159   0.00000   0.00000   0.00000   0.00000   3.14159
    D2        0.00000   0.00000   0.00000   0.00000   0.00000   0.00000
    D3        0.00000   0.00000   0.00000   0.00000   0.00000   0.00000
    D4        3.14159   0.00000   0.00000   0.00000   0.00000   3.14159
    D5        3.14159   0.00000   0.00000  -0.00000   0.00000   3.14159
    D6        0.00000  -0.00000   0.00000  -0.00000   0.00000   0.00000
    D7        0.00000  -0.00000   0.00000  -0.00000   0.00000   0.00000
    D8        3.14159   0.00000   0.00000  -0.00000   0.00000   3.14159
    D9        0.00000   0.00000   0.00000   0.00000   0.00000   0.00000
   D10        3.14159  -0.00000   0.00000   0.00000   0.00000   3.14159
   D11        3.14159   0.00000   0.00000   0.00000   0.00000   3.14159
   D12        0.00000   0.00000   0.00000  -0.00000   0.00000   0.00000
         Item               Value     Threshold  Converged?
 Maximum Force            0.000739     0.000450     NO 
 RMS     Force            0.000322     0.000300     NO 
 Maximum Displacement     0.008100     0.001800     NO 
 RMS     Displacement     0.002663     0.001200     NO 
 Predicted change in Energy=-8.611589D-06
 GradGradGradGradGradGradGradGradGradGradGradGradGradGradGradGradGradGrad

                          Input orientation:                          
 ---------------------------------------------------------------------
 Center     Atomic      Atomic             Coordinates (Angstroms)
 Number     Number       Type             X           Y           Z
 ---------------------------------------------------------------------
      1          6           0        0.615338    0.390250    0.000000
      2          1           0        0.498195    1.474581    0.000000
      3          6           0       -0.615338   -0.390250    0.000000
      4          1           0       -0.498195   -1.474581    0.000000
      5          6           0       -1.846481    0.139869    0.000000
      6          1           0       -2.001416    1.216758    0.000000
      7          1           0       -2.737413   -0.480629    0.000000
      8          6           0        1.846481   -0.139869    0.000000
      9          1           0        2.001416   -1.216758    0.000000
     10          1           0        2.737413    0.480629    0.000000
 ---------------------------------------------------------------------
                    Distance matrix (angstroms):
                    1          2          3          4          5
     1  C    0.000000
     2  H    1.090640   0.000000
     3  C    1.457307   2.171993   0.000000
     4  H    2.171993   3.112933   1.090640   0.000000
     5  C    2.474518   2.697955   1.340425   2.103408   0.000000
     6  H    2.744179   2.512873   2.122189   3.082690   1.087977
     7  H    3.464010   3.780477   2.123999   2.449906   1.085716
     8  C    1.340425   2.103408   2.474518   2.697955   3.703541
     9  H    2.122189   3.082690   2.744179   2.512873   4.080043
    10  H    2.123999   2.449906   3.464010   3.780477   4.596542
                    6          7          8          9         10
     6  H    0.000000
     7  H    1.850085   0.000000
     8  C    4.080043   4.596542   0.000000
     9  H    4.684514   4.795663   1.087977   0.000000
    10  H    4.795663   5.558573   1.085716   1.850085   0.000000
 Stoichiometry    C4H6
 Framework group  C2H[SGH(C4H6)]
 Deg. of freedom     9
 Full point group                 C2H     NOp   4
 Largest Abelian subgroup         C2H     NOp   4
 Largest concise Abelian subgroup C2      NOp   2
                         Standard orientation:                         
 ---------------------------------------------------------------------
 Center     Atomic      Atomic             Coordinates (Angstroms)
 Number     Number       Type             X           Y           Z
 ---------------------------------------------------------------------
      1          6           0       -0.325985    0.651667    0.000000
      2          1           0       -1.416604    0.644842    0.000000
      3          6           0        0.325985   -0.651667    0.000000
      4          1           0        1.416604   -0.644842    0.000000
      5          6           0       -0.325985   -1.822852    0.000000
      6          1           0       -1.413024   -1.868029    0.000000
      7          1           0        0.201181   -2.771996    0.000000
      8          6           0        0.325985    1.822852    0.000000
      9          1           0        1.413024    1.868029    0.000000
     10          1           0       -0.201181    2.771996    0.000000
 ---------------------------------------------------------------------
 Rotational constants (GHZ):          42.3161931           4.4096360           3.9934874
 Standard basis: 6-31G(d) (6D, 7F)
 There are    28 symmetry adapted cartesian basis functions of AG  symmetry.
 There are     8 symmetry adapted cartesian basis functions of BG  symmetry.
 There are     8 symmetry adapted cartesian basis functions of AU  symmetry.
 There are    28 symmetry adapted cartesian basis functions of BU  symmetry.
 There are    28 symmetry adapted basis functions of AG  symmetry.
 There are     8 symmetry adapted basis functions of BG  symmetry.
 There are     8 symmetry adapted basis functions of AU  symmetry.
 There are    28 symmetry adapted basis functions of BU  symmetry.
    72 basis functions,   136 primitive gaussians,    72 cartesian basis functions
    15 alpha electrons       15 beta electrons
       nuclear repulsion energy       103.5562840338 Hartrees.
 NAtoms=   10 NActive=   10 NUniq=    5 SFac= 4.00D+00 NAtFMM=   60 NAOKFM=F Big=F
 Integral buffers will be    131072 words long.
 Raffenetti 2 integral format.
 Two-electron integral symmetry is turned on.
 One-electron integrals computed using PRISM.
 NBasis=    72 RedAO= T EigKep=  3.62D-03  NBF=    28     8     8    28
 NBsUse=    72 1.00D-06 EigRej= -1.00D+00 NBFU=    28     8     8    28
 Initial guess from the checkpoint file:  "butadiene_scan_new.chk"
 B after Tr=     0.000000    0.000000    0.000000
         Rot=    1.000000   -0.000000   -0.000000   -0.000121 Ang=  -0.01 deg.
 Initial guess orbital symmetries:
       Occupied  (AG) (BU) (AG) (BU) (AG) (BU) (AG) (BU) (BU) (AG)
                 (AG) (BU) (AG) (AU) (BG)
       Virtual   (AU) (BG) (BU) (AG) (BU) (AG) (BU) (AG) (BU) (AG)
                 (BU) (BU) (AG) (AU) (BG) (AG) (BU) (BG) (BU) (AU)
                 (AG) (AG) (BU) (AG) (BU) (AG) (BU) (BU) (AG) (AG)
                 (BU) (AG) (AU) (BU) (BG) (AU) (BG) (AU) (AG) (AG)
                 (BU) (BU) (BG) (BU) (AG) (AG) (BU) (AU) (BG) (AG)
                 (BU) (BU) (AG) (AG) (BU) (AG) (BU)
 Keep R1 ints in memory in symmetry-blocked form, NReq=4414629.
 Requested convergence on RMS density matrix=1.00D-08 within 128 cycles.
 Requested convergence on MAX density matrix=1.00D-06.
 Requested convergence on             energy=1.00D-06.
 No special actions if energy rises.
 SCF Done:  E(RB3LYP) =  -155.992139190     A.U. after    7 cycles
            NFock=  7  Conv=0.69D-08     -V/T= 2.0103
 Calling FoFJK, ICntrl=      2127 FMM=F ISym2X=1 I1Cent= 0 IOpClX= 0 NMat=1 NMatS=1 NMatT=0.
 ***** Axes restored to original set *****
 -------------------------------------------------------------------
 Center     Atomic                   Forces (Hartrees/Bohr)
 Number     Number              X              Y              Z
 -------------------------------------------------------------------
      1        6          -0.000098721    0.000342706   -0.000000000
      2        1           0.000058365   -0.000087891   -0.000000000
      3        6           0.000098721   -0.000342706   -0.000000000
      4        1          -0.000058365    0.000087891   -0.000000000
      5        6           0.000024609    0.000166741   -0.000000000
      6        1          -0.000100784   -0.000046771   -0.000000000
      7        1          -0.000047366    0.000000270   -0.000000000
      8        6          -0.000024609   -0.000166741   -0.000000000
      9        1           0.000100784    0.000046771   -0.000000000
     10        1           0.000047366   -0.000000270   -0.000000000
 -------------------------------------------------------------------
 Cartesian Forces:  Max     0.000342706 RMS     0.000109946

 GradGradGradGradGradGradGradGradGradGradGradGradGradGradGradGradGradGrad
 Berny optimization.
 Using GEDIIS/GDIIS optimizer.
 FormGI is forming the generalized inverse of G from B-inverse, IUseBI=4.
 Internal  Forces:  Max     0.000161111 RMS     0.000069403
 Search for a local minimum.
 Step number   4 out of a maximum of   43 on scan point     1 out of    19
 All quantities printed in internal units (Hartrees-Bohrs-Radians)
 Mixed Optimization -- En-DIIS/RFO-DIIS
 Swapping is turned off.
 Update second derivatives using D2CorX and points    1    2    3    4
 DE= -9.24D-06 DEPred=-8.61D-06 R= 1.07D+00
 TightC=F SS=  1.41D+00  RLast= 1.06D-02 DXNew= 8.4853D-01 3.1868D-02
 Trust test= 1.07D+00 RLast= 1.06D-02 DXMaxT set to 5.05D-01
 ITU=  1  1  1  0
     Eigenvalues ---    0.00876   0.01496   0.02681   0.02681   0.02681
     Eigenvalues ---    0.02681   0.11333   0.16000   0.16000   0.16000
     Eigenvalues ---    0.16154   0.16290   0.21589   0.22000   0.29573
     Eigenvalues ---    0.37194   0.37230   0.37230   0.37230   0.37367
     Eigenvalues ---    0.38125   0.53930   0.590311000.000001000.00000
     Eigenvalues --- 1000.000001000.000001000.000001000.000001000.00000
     Eigenvalues --- 1000.000001000.000001000.00000
 En-DIIS/RFO-DIIS/Sim-DIIS IScMMF=       -3 using points:     4    3
 RFO step:  Lambda=-6.80986352D-07.
 DidBck=F Rises=F RFO-DIIS coefs:    1.14144   -0.14144
 Iteration  1 RMS(Cart)=  0.00061021 RMS(Int)=  0.00000020
 Iteration  2 RMS(Cart)=  0.00000019 RMS(Int)=  0.00000000
 Iteration  1 RMS(Cart)=  0.00000000 RMS(Int)=  0.00000000
 ClnCor:  largest displacement from symmetrization is 6.58D-13 for atom     8.
 Variable       Old X    -DE/DX   Delta X   Delta X   Delta X     New X
                                 (Linear)    (Quad)   (Total)
    R1        2.06101  -0.00009   0.00015  -0.00037  -0.00022   2.06080
    R2        2.75391   0.00014  -0.00014   0.00055   0.00042   2.75433
    R3        2.53304   0.00016  -0.00022   0.00048   0.00025   2.53329
    R4        2.06101  -0.00009   0.00015  -0.00037  -0.00022   2.06080
    R5        2.53304   0.00016  -0.00022   0.00048   0.00025   2.53329
    R6        2.05598  -0.00003   0.00009  -0.00015  -0.00005   2.05593
    R7        2.05171   0.00004  -0.00011   0.00021   0.00010   2.05181
    R8        2.05598  -0.00003   0.00009  -0.00015  -0.00005   2.05593
    R9        2.05171   0.00004  -0.00011   0.00021   0.00010   2.05181
    A1        2.02837   0.00006   0.00029   0.00014   0.00043   2.02881
    A2        2.08501  -0.00004  -0.00051   0.00014  -0.00037   2.08464
    A3        2.16980  -0.00003   0.00021  -0.00028  -0.00006   2.16974
    A4        2.02837   0.00006   0.00029   0.00014   0.00043   2.02881
    A5        2.16980  -0.00003   0.00021  -0.00028  -0.00006   2.16974
    A6        2.08501  -0.00004  -0.00051   0.00014  -0.00037   2.08464
    A7        2.12029   0.00013   0.00054   0.00043   0.00097   2.12126
    A8        2.12665  -0.00004   0.00004  -0.00025  -0.00021   2.12644
    A9        2.03625  -0.00009  -0.00059  -0.00018  -0.00076   2.03549
   A10        2.12029   0.00013   0.00054   0.00043   0.00097   2.12126
   A11        2.12665  -0.00004   0.00004  -0.00025  -0.00021   2.12644
   A12        2.03625  -0.00009  -0.00059  -0.00018  -0.00076   2.03549
    D1        3.14159   0.00000   0.00000  -0.00000   0.00000   3.14159
    D2        0.00000   0.00000   0.00000  -0.00000   0.00000   0.00000
    D3        0.00000   0.00000   0.00000  -0.00000   0.00000   0.00000
    D4        3.14159  -0.00000   0.00000   0.00000   0.00000   3.14159
    D5        3.14159  -0.00000   0.00000   0.00000   0.00000   3.14159
    D6        0.00000  -0.00000   0.00000   0.00000   0.00000   0.00000
    D7        0.00000  -0.00000   0.00000   0.00000   0.00000   0.00000
    D8        3.14159  -0.00000   0.00000   0.00000   0.00000   3.14159
    D9        0.00000  -0.00000   0.00000  -0.00000   0.00000   0.00000
   D10        3.14159   0.00000   0.00000  -0.00000   0.00000   3.14159
   D11        3.14159  -0.00000   0.00000  -0.00000   0.00000   3.14159
   D12        0.00000  -0.00000   0.00000   0.00000   0.00000   0.00000
         Item               Value     Threshold  Converged?
 Maximum Force            0.000161     0.000450     YES
 RMS     Force            0.000070     0.000300     YES
 Maximum Displacement     0.002090     0.001800     NO 
 RMS     Displacement     0.000610     0.001200     YES
 Predicted change in Energy=-3.404943D-07
 GradGradGradGradGradGradGradGradGradGradGradGradGradGradGradGradGradGrad

                          Input orientation:                          
 ---------------------------------------------------------------------
 Center     Atomic      Atomic             Coordinates (Angstroms)
 Number     Number       Type             X           Y           Z
 ---------------------------------------------------------------------
      1          6           0        0.615447    0.390284    0.000000
      2          1           0        0.498830    1.474557    0.000000
      3          6           0       -0.615447   -0.390284    0.000000
      4          1           0       -0.498830   -1.474557    0.000000
      5          6           0       -1.846657    0.140020    0.000000
      6          1           0       -2.002522    1.216746    0.000000
      7          1           0       -2.737570   -0.480603    0.000000
      8          6           0        1.846657   -0.140020    0.000000
      9          1           0        2.002522   -1.216746    0.000000
     10          1           0        2.737570    0.480603    0.000000
 ---------------------------------------------------------------------
                    Distance matrix (angstroms):
                    1          2          3          4          5
     1  C    0.000000
     2  H    1.090526   0.000000
     3  C    1.457527   2.172382   0.000000
     4  H    2.172382   3.113294   1.090526   0.000000
     5  C    2.474791   2.698574   1.340560   2.103211   0.000000
     6  H    2.745324   2.514604   2.122857   3.082888   1.087949
     7  H    3.464270   3.781129   2.124044   2.449469   1.085771
     8  C    1.340560   2.103211   2.474791   2.698574   3.703916
     9  H    2.122857   3.082888   2.745324   2.514604   4.081298
    10  H    2.124044   2.449469   3.464270   3.781129   4.596862
                    6          7          8          9         10
     6  H    0.000000
     7  H    1.849672   0.000000
     8  C    4.081298   4.596862   0.000000
     9  H    4.686391   4.796914   1.087949   0.000000
    10  H    4.796914   5.558873   1.085771   1.849672   0.000000
 Stoichiometry    C4H6
 Framework group  C2H[SGH(C4H6)]
 Deg. of freedom     9
 Full point group                 C2H     NOp   4
 Largest Abelian subgroup         C2H     NOp   4
 Largest concise Abelian subgroup C2      NOp   2
                         Standard orientation:                         
 ---------------------------------------------------------------------
 Center     Atomic      Atomic             Coordinates (Angstroms)
 Number     Number       Type             X           Y           Z
 ---------------------------------------------------------------------
      1          6           0       -0.326046    0.651760    0.000000
      2          1           0       -1.416554    0.645388    0.000000
      3          6           0        0.326046   -0.651760    0.000000
      4          1           0        1.416554   -0.645388    0.000000
      5          6           0       -0.326046   -1.823031    0.000000
      6          1           0       -1.413014   -1.869213    0.000000
      7          1           0        0.201302   -2.772137    0.000000
      8          6           0        0.326046    1.823031    0.000000
      9          1           0        1.413014    1.869213    0.000000
     10          1           0       -0.201302    2.772137    0.000000
 ---------------------------------------------------------------------
 Rotational constants (GHZ):          42.3118195           4.4084448           3.9924714
 Standard basis: 6-31G(d) (6D, 7F)
 There are    28 symmetry adapted cartesian basis functions of AG  symmetry.
 There are     8 symmetry adapted cartesian basis functions of BG  symmetry.
 There are     8 symmetry adapted cartesian basis functions of AU  symmetry.
 There are    28 symmetry adapted cartesian basis functions of BU  symmetry.
 There are    28 symmetry adapted basis functions of AG  symmetry.
 There are     8 symmetry adapted basis functions of BG  symmetry.
 There are     8 symmetry adapted basis functions of AU  symmetry.
 There are    28 symmetry adapted basis functions of BU  symmetry.
    72 basis functions,   136 primitive gaussians,    72 cartesian basis functions
    15 alpha electrons       15 beta electrons
       nuclear repulsion energy       103.5459489485 Hartrees.
 NAtoms=   10 NActive=   10 NUniq=    5 SFac= 4.00D+00 NAtFMM=   60 NAOKFM=F Big=F
 Integral buffers will be    131072 words long.
 Raffenetti 2 integral format.
 Two-electron integral symmetry is turned on.
 One-electron integrals computed using PRISM.
 NBasis=    72 RedAO= T EigKep=  3.63D-03  NBF=    28     8     8    28
 NBsUse=    72 1.00D-06 EigRej= -1.00D+00 NBFU=    28     8     8    28
 Initial guess from the checkpoint file:  "butadiene_scan_new.chk"
 B after Tr=     0.000000    0.000000    0.000000
         Rot=    1.000000   -0.000000   -0.000000   -0.000012 Ang=  -0.00 deg.
 Initial guess orbital symmetries:
       Occupied  (AG) (BU) (AG) (BU) (AG) (BU) (AG) (BU) (BU) (AG)
                 (AG) (BU) (AG) (AU) (BG)
       Virtual   (AU) (BG) (BU) (AG) (BU) (AG) (BU) (AG) (BU) (AG)
                 (BU) (BU) (AG) (AU) (BG) (AG) (BU) (BG) (BU) (AU)
                 (AG) (AG) (BU) (AG) (BU) (AG) (BU) (BU) (AG) (AG)
                 (BU) (AG) (AU) (BU) (BG) (AU) (BG) (AU) (AG) (AG)
                 (BU) (BU) (BG) (BU) (AG) (AG) (BU) (AU) (BG) (AG)
                 (BU) (BU) (AG) (AG) (BU) (AG) (BU)
 Keep R1 ints in memory in symmetry-blocked form, NReq=4414629.
 Requested convergence on RMS density matrix=1.00D-08 within 128 cycles.
 Requested convergence on MAX density matrix=1.00D-06.
 Requested convergence on             energy=1.00D-06.
 No special actions if energy rises.
 SCF Done:  E(RB3LYP) =  -155.992139555     A.U. after    6 cycles
            NFock=  6  Conv=0.69D-08     -V/T= 2.0103
 Calling FoFJK, ICntrl=      2127 FMM=F ISym2X=1 I1Cent= 0 IOpClX= 0 NMat=1 NMatS=1 NMatT=0.
 ***** Axes restored to original set *****
 -------------------------------------------------------------------
 Center     Atomic                   Forces (Hartrees/Bohr)
 Number     Number              X              Y              Z
 -------------------------------------------------------------------
      1        6          -0.000024927    0.000052420   -0.000000000
      2        1           0.000004882   -0.000032577   -0.000000000
      3        6           0.000024927   -0.000052420   -0.000000000
      4        1          -0.000004882    0.000032577   -0.000000000
      5        6           0.000035419    0.000045734   -0.000000000
      6        1          -0.000006656   -0.000017510   -0.000000000
      7        1          -0.000011715   -0.000012527   -0.000000000
      8        6          -0.000035419   -0.000045734   -0.000000000
      9        1           0.000006656    0.000017510   -0.000000000
     10        1           0.000011715    0.000012527   -0.000000000
 -------------------------------------------------------------------
 Cartesian Forces:  Max     0.000052420 RMS     0.000023728

 GradGradGradGradGradGradGradGradGradGradGradGradGradGradGradGradGradGrad
 Berny optimization.
 Using GEDIIS/GDIIS optimizer.
 FormGI is forming the generalized inverse of G from B-inverse, IUseBI=4.
 Internal  Forces:  Max     0.000032944 RMS     0.000013729
 Search for a local minimum.
 Step number   5 out of a maximum of   43 on scan point     1 out of    19
 All quantities printed in internal units (Hartrees-Bohrs-Radians)
 Mixed Optimization -- En-DIIS/RFO-DIIS
 Swapping is turned off.
 Update second derivatives using D2CorX and points    1    2    3    4    5
 DE= -3.65D-07 DEPred=-3.40D-07 R= 1.07D+00
 Trust test= 1.07D+00 RLast= 2.05D-03 DXMaxT set to 5.05D-01
 ITU=  0  1  1  1  0
     Eigenvalues ---    0.00875   0.01495   0.02681   0.02681   0.02681
     Eigenvalues ---    0.02681   0.10776   0.15715   0.16000   0.16000
     Eigenvalues ---    0.16000   0.16467   0.20379   0.22000   0.31324
     Eigenvalues ---    0.36371   0.37230   0.37230   0.37230   0.37297
     Eigenvalues ---    0.38657   0.53930   0.609031000.000001000.00000
     Eigenvalues --- 1000.000001000.000001000.000001000.000001000.00000
     Eigenvalues --- 1000.000001000.000001000.00000
 En-DIIS/RFO-DIIS/Sim-DIIS IScMMF=       -3 using points:     5    4    3
 RFO step:  Lambda=-2.03088522D-08.
 DidBck=F Rises=F RFO-DIIS coefs:    1.14393   -0.15408    0.01014
 Iteration  1 RMS(Cart)=  0.00005459 RMS(Int)=  0.00000000
 Iteration  2 RMS(Cart)=  0.00000000 RMS(Int)=  0.00000000
 Iteration  1 RMS(Cart)=  0.00000000 RMS(Int)=  0.00000000
 ClnCor:  largest displacement from symmetrization is 2.92D-13 for atom     9.
 Variable       Old X    -DE/DX   Delta X   Delta X   Delta X     New X
                                 (Linear)    (Quad)   (Total)
    R1        2.06080  -0.00003  -0.00004  -0.00006  -0.00010   2.06069
    R2        2.75433  -0.00003   0.00007  -0.00016  -0.00009   2.75424
    R3        2.53329  -0.00001   0.00005  -0.00006  -0.00001   2.53328
    R4        2.06080  -0.00003  -0.00004  -0.00006  -0.00010   2.06069
    R5        2.53329  -0.00001   0.00005  -0.00006  -0.00001   2.53328
    R6        2.05593  -0.00002  -0.00001  -0.00004  -0.00005   2.05587
    R7        2.05181   0.00002   0.00002   0.00002   0.00005   2.05186
    R8        2.05593  -0.00002  -0.00001  -0.00004  -0.00005   2.05587
    R9        2.05181   0.00002   0.00002   0.00002   0.00005   2.05186
    A1        2.02881   0.00001   0.00004   0.00003   0.00007   2.02888
    A2        2.08464   0.00001  -0.00002   0.00004   0.00002   2.08466
    A3        2.16974  -0.00002  -0.00002  -0.00007  -0.00010   2.16964
    A4        2.02881   0.00001   0.00004   0.00003   0.00007   2.02888
    A5        2.16974  -0.00002  -0.00002  -0.00007  -0.00010   2.16964
    A6        2.08464   0.00001  -0.00002   0.00004   0.00002   2.08466
    A7        2.12126   0.00001   0.00010   0.00003   0.00013   2.12139
    A8        2.12644  -0.00001  -0.00003  -0.00004  -0.00008   2.12636
    A9        2.03549  -0.00000  -0.00007   0.00001  -0.00005   2.03543
   A10        2.12126   0.00001   0.00010   0.00003   0.00013   2.12139
   A11        2.12644  -0.00001  -0.00003  -0.00004  -0.00008   2.12636
   A12        2.03549  -0.00000  -0.00007   0.00001  -0.00005   2.03543
    D1        3.14159   0.00000   0.00000   0.00000   0.00000   3.14159
    D2        0.00000   0.00000   0.00000   0.00000   0.00000   0.00000
    D3        0.00000   0.00000   0.00000   0.00000   0.00000   0.00000
    D4        3.14159  -0.00000   0.00000   0.00000   0.00000   3.14159
    D5        3.14159  -0.00000   0.00000   0.00000   0.00000   3.14159
    D6        0.00000  -0.00000   0.00000  -0.00000   0.00000   0.00000
    D7        0.00000  -0.00000   0.00000   0.00000   0.00000   0.00000
    D8        3.14159   0.00000   0.00000  -0.00000   0.00000   3.14159
    D9        0.00000  -0.00000   0.00000   0.00000   0.00000   0.00000
   D10        3.14159   0.00000   0.00000   0.00000   0.00000   3.14159
   D11        3.14159  -0.00000   0.00000   0.00000   0.00000   3.14159
   D12        0.00000  -0.00000   0.00000  -0.00000   0.00000   0.00000
         Item               Value     Threshold  Converged?
 Maximum Force            0.000033     0.000450     YES
 RMS     Force            0.000014     0.000300     YES
 Maximum Displacement     0.000129     0.001800     YES
 RMS     Displacement     0.000055     0.001200     YES
 Predicted change in Energy=-1.209277D-08
 Optimization completed.
    -- Stationary point found.
                           ----------------------------
                           !   Optimized Parameters   !
                           ! (Angstroms and Degrees)  !
 --------------------------                            --------------------------
 ! Name  Definition              Value          Derivative Info.                !
 --------------------------------------------------------------------------------
 ! R1    R(1,2)                  1.0905         -DE/DX =    0.0                 !
 ! R2    R(1,3)                  1.4575         -DE/DX =    0.0                 !
 ! R3    R(1,8)                  1.3406         -DE/DX =    0.0                 !
 ! R4    R(3,4)                  1.0905         -DE/DX =    0.0                 !
 ! R5    R(3,5)                  1.3406         -DE/DX =    0.0                 !
 ! R6    R(5,6)                  1.0879         -DE/DX =    0.0                 !
 ! R7    R(5,7)                  1.0858         -DE/DX =    0.0                 !
 ! R8    R(8,9)                  1.0879         -DE/DX =    0.0                 !
 ! R9    R(8,10)                 1.0858         -DE/DX =    0.0                 !
 ! A1    A(2,1,3)              116.242          -DE/DX =    0.0                 !
 ! A2    A(2,1,8)              119.4411         -DE/DX =    0.0                 !
 ! A3    A(3,1,8)              124.3169         -DE/DX =    0.0                 !
 ! A4    A(1,3,4)              116.242          -DE/DX =    0.0                 !
 ! A5    A(1,3,5)              124.3169         -DE/DX =    0.0                 !
 ! A6    A(4,3,5)              119.4411         -DE/DX =    0.0                 !
 ! A7    A(3,5,6)              121.5392         -DE/DX =    0.0                 !
 ! A8    A(3,5,7)              121.836          -DE/DX =    0.0                 !
 ! A9    A(6,5,7)              116.6248         -DE/DX =    0.0                 !
 ! A10   A(1,8,9)              121.5392         -DE/DX =    0.0                 !
 ! A11   A(1,8,10)             121.836          -DE/DX =    0.0                 !
 ! A12   A(9,8,10)             116.6248         -DE/DX =    0.0                 !
 ! D1    D(2,1,3,4)            180.0            -DE/DX =    0.0                 !
 ! D2    D(2,1,3,5)              0.0            -DE/DX =    0.0                 !
 ! D3    D(8,1,3,4)              0.0            -DE/DX =    0.0                 !
 ! D4    D(8,1,3,5)            180.0            -DE/DX =    0.0                 !
 ! D5    D(2,1,8,9)            180.0            -DE/DX =    0.0                 !
 ! D6    D(2,1,8,10)             0.0            -DE/DX =    0.0                 !
 ! D7    D(3,1,8,9)              0.0            -DE/DX =    0.0                 !
 ! D8    D(3,1,8,10)           180.0            -DE/DX =    0.0                 !
 ! D9    D(1,3,5,6)              0.0            -DE/DX =    0.0                 !
 ! D10   D(1,3,5,7)            180.0            -DE/DX =    0.0                 !
 ! D11   D(4,3,5,6)            180.0            -DE/DX =    0.0                 !
 ! D12   D(4,3,5,7)              0.0            -DE/DX =    0.0                 !
 --------------------------------------------------------------------------------
 Iteration  1 RMS(Cart)=  0.03227544 RMS(Int)=  0.02164534
 Iteration  2 RMS(Cart)=  0.00094047 RMS(Int)=  0.02163864
 Iteration  3 RMS(Cart)=  0.00000658 RMS(Int)=  0.02163863
 Iteration  4 RMS(Cart)=  0.00000023 RMS(Int)=  0.02163863
 Iteration  1 RMS(Cart)=  0.01639046 RMS(Int)=  0.01097042
 Iteration  2 RMS(Cart)=  0.00832707 RMS(Int)=  0.01226237
 Iteration  3 RMS(Cart)=  0.00422508 RMS(Int)=  0.01373211
 Iteration  4 RMS(Cart)=  0.00214185 RMS(Int)=  0.01462307
 Iteration  5 RMS(Cart)=  0.00108522 RMS(Int)=  0.01510453
 Iteration  6 RMS(Cart)=  0.00054970 RMS(Int)=  0.01535528
 Iteration  7 RMS(Cart)=  0.00027840 RMS(Int)=  0.01548394
 Iteration  8 RMS(Cart)=  0.00014099 RMS(Int)=  0.01554951
 Iteration  9 RMS(Cart)=  0.00007140 RMS(Int)=  0.01558282
 Iteration 10 RMS(Cart)=  0.00003616 RMS(Int)=  0.01559971
 Iteration 11 RMS(Cart)=  0.00001831 RMS(Int)=  0.01560827
 Iteration 12 RMS(Cart)=  0.00000927 RMS(Int)=  0.01561261
 Iteration 13 RMS(Cart)=  0.00000469 RMS(Int)=  0.01561481
 Iteration 14 RMS(Cart)=  0.00000238 RMS(Int)=  0.01561592
 Iteration 15 RMS(Cart)=  0.00000120 RMS(Int)=  0.01561648
 Iteration 16 RMS(Cart)=  0.00000061 RMS(Int)=  0.01561677
 GradGradGradGradGradGradGradGradGradGradGradGradGradGradGradGradGradGrad

                          Input orientation:                          
 ---------------------------------------------------------------------
 Center     Atomic      Atomic             Coordinates (Angstroms)
 Number     Number       Type             X           Y           Z
 ---------------------------------------------------------------------
      1          6           0        0.615699    0.389841    0.074174
      2          1           0        0.501427    1.474309    0.075381
      3          6           0       -0.615699   -0.389841    0.074174
      4          1           0       -0.501427   -1.474309    0.075381
      5          6           0       -1.843962    0.139227   -0.022418
      6          1           0       -1.998416    1.215243   -0.068063
      7          1           0       -2.733887   -0.481865   -0.059073
      8          6           0        1.843962   -0.139227   -0.022418
      9          1           0        1.998416   -1.215243   -0.068063
     10          1           0        2.733887    0.481865   -0.059073
[...]
           R1           1.09053   1.09050   1.09056   1.09067   1.09078
           R2           1.45753   1.45823   1.45983   1.46314   1.46759
           R3           1.34056   1.34050   1.34018   1.33960   1.33886
           R4           1.09053   1.09050   1.09056   1.09067   1.09078
           R5           1.34056   1.34050   1.34018   1.33960   1.33886
           R6           1.08795   1.08794   1.08795   1.08800   1.08800
           R7           1.08577   1.08580   1.08583   1.08598   1.08607
           R8           1.08795   1.08794   1.08795   1.08800   1.08800
           R9           1.08577   1.08580   1.08583   1.08598   1.08607
           A1         116.24198 116.25313 116.26740 116.27666 116.35472
           A2         119.44109 119.39714 119.28949 119.15600 118.95206
           A3         124.31693 124.30212 124.26448 124.21299 124.19172
           A4         116.24198 116.25313 116.26740 116.27666 116.35472
           A5         124.31693 124.30212 124.26448 124.21299 124.19172
           A6         119.44109 119.39714 119.28949 119.15600 118.95206
           A7         121.53920 121.55018 121.59140 121.65091 121.71580
           A8         121.83598 121.81848 121.77507 121.73104 121.62752
           A9         116.62482 116.63095 116.63116 116.61298 116.64836
           A10        121.53920 121.55018 121.59140 121.65091 121.71580
           A11        121.83598 121.81848 121.77507 121.73104 121.62752
           A12        116.62482 116.63095 116.63116 116.61298 116.64836
           D1         180.00000-175.06572-169.81444-163.82712-156.46761
           D2           0.00000   7.46707  15.09284  23.08650  31.76626
           D3           0.00000   7.46707  15.09284  23.08650  31.76626
           D4         180.00000-170.00014-159.99988-149.99988-139.99987
           D5         180.00000-179.32531-178.69384-178.12396-177.70316
           D6           0.00000   0.90952   1.88542   2.72221   3.38144
           D7           0.00000  -1.93260  -3.73977  -5.22354  -6.13642
           D8         180.00000 178.30223 176.83949 175.62264 174.94818
           D9           0.00000  -1.93260  -3.73977  -5.22354  -6.13642
           D10        180.00000 178.30223 176.83949 175.62264 174.94818
           D11        180.00000-179.32531-178.69384-178.12396-177.70316
           D12          0.00000   0.90952   1.88542   2.72221   3.38144
                           6         7         8         9        10
     Eigenvalues --    -0.98459  -0.98228  -0.98064  -0.98009  -0.98058
           R1           1.09085   1.09101   1.09133   1.09188   1.09238
           R2           1.47363   1.48020   1.48595   1.48756   1.48549
           R3           1.33774   1.33642   1.33503   1.33426   1.33431
           R4           1.09085   1.09101   1.09133   1.09188   1.09238
           R5           1.33774   1.33642   1.33503   1.33426   1.33431
           R6           1.08808   1.08790   1.08782   1.08752   1.08737
           R7           1.08626   1.08651   1.08677   1.08688   1.08699
           R8           1.08808   1.08790   1.08782   1.08752   1.08737
           R9           1.08626   1.08651   1.08677   1.08688   1.08699
           A1         116.47797 116.63286 116.67116 116.45370 116.10969
           A2         118.83093 118.75503 118.85354 118.90662 118.92926
           A3         124.16650 124.26759 124.40071 124.63137 124.83806
           A4         116.47797 116.63286 116.67116 116.45370 116.10969
           A5         124.16650 124.26759 124.40071 124.63137 124.83806
           A6         118.83093 118.75503 118.85354 118.90662 118.92926
           A7         121.77846 121.86050 121.82833 121.79112 121.64792
           A8         121.60600 121.46912 121.50886 121.47034 121.54546
           A9         116.60556 116.66350 116.66158 116.73774 116.80207
           A10        121.77846 121.86050 121.82833 121.79112 121.64792
           A11        121.60600 121.46912 121.50886 121.47034 121.54546
           A12        116.60556 116.66350 116.66158 116.73774 116.80207
           D1        -146.85889-133.68635-116.37253 -97.87208 -81.81863
           D2          41.57061  53.15688  66.81375  81.06401  94.09074
           D3          41.57061  53.15688  66.81375  81.06401  94.09074
           D4        -129.99988-119.99988-109.99996 -99.99990 -89.99990
           D5        -177.51609-177.76805-178.74899 179.78625 178.38274
           D6           3.67240   3.21752   1.66878  -0.55014  -2.41788
           D7          -6.13037  -4.74631  -1.99989   0.87433   2.57982
           D8         175.05812 176.23927 178.41788-179.46205-178.22079
           D9          -6.13037  -4.74631  -1.99989   0.87433   2.57982
           D10        175.05812 176.23927 178.41788-179.46205-178.22079
           D11       -177.51609-177.76805-178.74899 179.78625 178.38274
           D12          3.67240   3.21752   1.66878  -0.55014  -2.41788
                          11        12        13        14        15
     Eigenvalues --    -0.98172  -0.98313  -0.98451  -0.98562  -0.98629
           R1           1.09252   1.09232   1.09192   1.09147   1.09099
           R2           1.48197   1.47804   1.47469   1.47204   1.47059
           R3           1.33491   1.33582   1.33682   1.33775   1.33859
           R4           1.09252   1.09232   1.09192   1.09147   1.09099
           R5           1.33491   1.33582   1.33682   1.33775   1.33859
           R6           1.08724   1.08719   1.08717   1.08722   1.08721
           R7           1.08698   1.08688   1.08675   1.08662   1.08637
           R8           1.08724   1.08719   1.08717   1.08722   1.08721
           R9           1.08698   1.08688   1.08675   1.08662   1.08637
           A1         115.94874 115.93576 116.02854 115.98846 115.90282
           A2         118.94455 118.97844 118.97891 118.96117 118.77071
           A3         124.88543 124.84698 124.80281 124.93431 125.27660
           A4         115.94874 115.93576 116.02854 115.98846 115.90282
           A5         124.88543 124.84698 124.80281 124.93431 125.27660
           A6         118.94455 118.97844 118.97891 118.96117 118.77071
           A7         121.52362 121.42887 121.38082 121.38197 121.56396
           A8         121.57973 121.62705 121.64878 121.68138 121.57376
           A9         116.89067 116.93931 116.96868 116.93665 116.86120
           A10        121.52362 121.42887 121.38082 121.38197 121.56396
           A11        121.57973 121.62705 121.64878 121.68138 121.57376
           A12        116.89067 116.93931 116.96868 116.93665 116.86120
           D1         -69.03189 -58.61098 -49.84696 -42.05296 -34.77659
           D2         105.48401 115.69454 125.07653 133.97348 142.61168
           D3         105.48401 115.69454 125.07653 133.97348 142.61168
           D4         -80.00009 -69.99993 -59.99999 -50.00009 -40.00006
           D5         177.38008 176.67530 176.23652 176.01555 176.21291
           D6          -3.53707  -4.14389  -4.25559  -3.99597  -3.39781
           D7           3.01568   2.52969   1.45139   0.09800  -1.10683
           D8        -177.90147-178.28950-179.04071-179.91352 179.28246
           D9           3.01568   2.52969   1.45139   0.09800  -1.10683
           D10       -177.90147-178.28950-179.04071-179.91352 179.28246
           D11        177.38008 176.67530 176.23652 176.01555 176.21291
           D12         -3.53707  -4.14389  -4.25559  -3.99597  -3.39781
                          16        17        18        19
     Eigenvalues --    -0.98649  -0.98633  -0.98607  -0.98595
           R1           1.09055   1.09012   1.08977   1.08964
           R2           1.47008   1.47042   1.47106   1.47135
           R3           1.33920   1.33961   1.33985   1.33994
           R4           1.09055   1.09012   1.08977   1.08964
           R5           1.33920   1.33961   1.33985   1.33994
           R6           1.08724   1.08725   1.08725   1.08725
           R7           1.08615   1.08599   1.08588   1.08584
           R8           1.08724   1.08725   1.08725   1.08725
           R9           1.08615   1.08599   1.08588   1.08584
           A1         115.62331 115.27444 114.97981 114.86312
           A2         118.52132 118.22718 117.97782 117.87850
           A3         125.84269 126.49735 127.04236 127.25838
           A4         115.62331 115.27444 114.97981 114.86312
           A5         125.84269 126.49735 127.04236 127.25838
           A6         118.52132 118.22718 117.97782 117.87850
           A7         121.81817 122.12516 122.40038 122.51369
           A8         121.46368 121.33154 121.21222 121.16373
           A9         116.71418 116.53827 116.38509 116.32258
           A10        121.81817 122.12516 122.40038 122.51369
           A11        121.46368 121.33154 121.21222 121.16373
           A12        116.71418 116.53827 116.38509 116.32258
           D1         -27.35691 -19.24218 -10.04462   0.01922
           D2         151.32157 160.37898 169.97774-179.99033
           D3         151.32157 160.37898 169.97774-179.99033
           D4         -29.99995 -19.99987  -9.99989   0.00013
           D5         176.65248 177.43921 178.57608 179.96212
           D6          -2.59891  -1.71677  -0.84991  -0.02496
           D7          -1.99137  -2.17198  -1.44688  -0.02808
           D8         178.75724 178.67205 179.12714-180.01516
           D9          -1.99137  -2.17198  -1.44688  -0.02808
           D10        178.75724 178.67205 179.12714-180.01516
           D11        176.65248 177.43921 178.57608 179.96212
           D12         -2.59891  -1.71677  -0.84991  -0.02496
 GradGradGradGradGradGradGradGradGradGradGradGradGradGradGradGradGradGrad

                          Input orientation:                          
 ---------------------------------------------------------------------
 Center     Atomic      Atomic             Coordinates (Angstroms)
 Number     Number       Type             X           Y           Z
 ---------------------------------------------------------------------
      1          6           0        0.724251    0.129153    0.623136
      2          1           0        1.175306    0.209419    1.611782
      3          6           0       -0.724251   -0.129153    0.623136
      4          1           0       -1.175306   -0.209419    1.611782
      5          6           0       -1.522864   -0.271568   -0.443338
      6          1           0       -1.152859   -0.205131   -1.463529
      7          1           0       -2.585756   -0.461359   -0.328052
      8          6           0        1.522864    0.271568   -0.443338
      9          1           0        1.152859    0.205131   -1.463529
     10          1           0        2.585756    0.461359   -0.328052
 ---------------------------------------------------------------------
                    Distance matrix (angstroms):
                    1          2          3          4          5
     1  C    0.000000
     2  H    1.089639   0.000000
     3  C    1.471353   2.168033   0.000000
     4  H    2.168033   2.387635   1.089639   0.000000
     5  C    2.519418   3.425636   1.339937   2.085228   0.000000
     6  H    2.826563   3.879399   2.131584   3.075396   1.087248
     7  H    3.494225   4.284681   2.116677   2.411597   1.085841
     8  C    1.339937   2.085228   2.519418   3.425636   3.093777
     9  H    2.131584   3.075396   2.826563   3.879399   2.903020
    10  H    2.116677   2.411597   3.494225   4.284681   4.175072
                    6          7          8          9         10
     6  H    0.000000
     7  H    1.846118   0.000000
     8  C    2.903020   4.175072   0.000000
     9  H    2.341933   3.963680   1.087248   0.000000
    10  H    3.963680   5.253184   1.085841   1.846118   0.000000
 Stoichiometry    C4H6
 Framework group  C2[X(C4H6)]
 Deg. of freedom    13
 Full point group                 C2      NOp   2
 Largest Abelian subgroup         C2      NOp   2
 Largest concise Abelian subgroup C2      NOp   2
                         Standard orientation:                         
 ---------------------------------------------------------------------
 Center     Atomic      Atomic             Coordinates (Angstroms)
 Number     Number       Type             X           Y           Z
 ---------------------------------------------------------------------
      1          6           0        0.000000   -0.735676   -0.563203
      2          1           0        0.000166   -1.193817   -1.551849
      3          6           0       -0.000000    0.735676   -0.563203
      4          1           0       -0.000166    1.193817   -1.551849
      5          6           0        0.000000    1.546888    0.503271
      6          1           0       -0.000448    1.170966    1.523462
      7          1           0        0.000246    2.626592    0.387985
      8          6           0       -0.000000   -1.546888    0.503271
      9          1           0        0.000448   -1.170966    1.523462
     10          1           0       -0.000246   -2.626592    0.387985
 ---------------------------------------------------------------------
 Rotational constants (GHZ):          21.4891585           5.6177920           4.4535302

 **********************************************************************

            Population analysis using the SCF Density.

 **********************************************************************

 Orbital symmetries:
       Occupied  (A) (B) (B) (A) (A) (B) (A) (B) (A) (A) (B) (B)
                 (A) (B) (A)
       Virtual   (B) (A) (A) (A) (B) (B) (B) (A) (A) (B) (B) (A)
                 (B) (A) (B) (A) (A) (B) (A) (B) (A) (A) (B) (B)
                 (A) (A) (B) (B) (B) (A) (B) (A) (B) (B) (B) (A)
                 (A) (B) (A) (A) (A) (B) (B) (A) (A) (B) (B) (B)
                 (A) (A) (A) (B) (B) (A) (B) (A) (B)
 The electronic state is 1-A.
 Alpha  occ. eigenvalues --  -10.19201 -10.19170 -10.18282 -10.18282  -0.79825
 Alpha  occ. eigenvalues --   -0.72471  -0.61823  -0.52662  -0.48756  -0.43655
 Alpha  occ. eigenvalues --   -0.41616  -0.35979  -0.34787  -0.31708  -0.22732
 Alpha virt. eigenvalues --   -0.03015   0.09642   0.10084   0.11472   0.15316
 Alpha virt. eigenvalues --    0.19206   0.20166   0.21005   0.30619   0.34058
 Alpha virt. eigenvalues --    0.43253   0.46728   0.52744   0.53220   0.58678
 Alpha virt. eigenvalues --    0.59541   0.62690   0.64100   0.67719   0.68957
 Alpha virt. eigenvalues --    0.69326   0.83377   0.86036   0.88107   0.89354
 Alpha virt. eigenvalues --    0.93019   0.95615   0.98680   1.05512   1.07749
 Alpha virt. eigenvalues --    1.18332   1.23858   1.34036   1.45806   1.48272
 Alpha virt. eigenvalues --    1.52120   1.65585   1.75241   1.77714   1.87983
 Alpha virt. eigenvalues --    1.96073   2.00787   2.10517   2.16322   2.21994
 Alpha virt. eigenvalues --    2.25178   2.27871   2.54179   2.54996   2.55356
 Alpha virt. eigenvalues --    2.62111   2.86557   3.07910   4.06618   4.14857
 Alpha virt. eigenvalues --    4.20072   4.48263
          Condensed to atoms (all electrons):
               1          2          3          4          5          6
     1  C    4.753009   0.364298   0.448166  -0.043440  -0.038764  -0.012457
     2  H    0.364298   0.612879  -0.043440  -0.006886   0.006462   0.000017
     3  C    0.448166  -0.043440   4.753009   0.364298   0.653687  -0.030979
     4  H   -0.043440  -0.006886   0.364298   0.612879  -0.057726   0.006020
     5  C   -0.038764   0.006462   0.653687  -0.057726   5.057232   0.364829
     6  H   -0.012457   0.000017  -0.030979   0.006020   0.364829   0.566515
     7  H    0.004447  -0.000167  -0.020417  -0.008379   0.364743  -0.043070
     8  C    0.653687  -0.057726  -0.038764   0.006462  -0.021284   0.005193
     9  H   -0.030979   0.006020  -0.012457   0.000017   0.005193   0.003284
    10  H   -0.020417  -0.008379   0.004447  -0.000167   0.000081  -0.000102
               7          8          9         10
     1  C    0.004447   0.653687  -0.030979  -0.020417
     2  H   -0.000167  -0.057726   0.006020  -0.008379
     3  C   -0.020417  -0.038764  -0.012457   0.004447
     4  H   -0.008379   0.006462   0.000017  -0.000167
     5  C    0.364743  -0.021284   0.005193   0.000081
     6  H   -0.043070   0.005193   0.003284  -0.000102
     7  H    0.558533   0.000081  -0.000102   0.000001
     8  C    0.000081   5.057232   0.364829   0.364743
     9  H   -0.000102   0.364829   0.566515  -0.043070
    10  H    0.000001   0.364743  -0.043070   0.558533
 Mulliken charges:
               1
     1  C   -0.077551
     2  H    0.126924
     3  C   -0.077551
     4  H    0.126924
     5  C   -0.334453
     6  H    0.140750
     7  H    0.144330
     8  C   -0.334453
     9  H    0.140750
    10  H    0.144330
 Sum of Mulliken charges =   0.00000
 Mulliken charges with hydrogens summed into heavy atoms:
               1
     1  C    0.049373
     3  C    0.049373
     5  C   -0.049373
     8  C   -0.049373
 Electronic spatial extent (au):  <R**2>=            308.6241
 Charge=              0.0000 electrons
 Dipole moment (field-independent basis, Debye):
    X=              0.0000    Y=              0.0000    Z=             -0.0853  Tot=              0.0853
 Quadrupole moment (field-independent basis, Debye-Ang):
   XX=            -27.9022   YY=            -22.7351   ZZ=            -22.4612
   XY=              0.0001   XZ=              0.0000   YZ=              0.0000
 Traceless Quadrupole moment (field-independent basis, Debye-Ang):
   XX=             -3.5361   YY=              1.6311   ZZ=              1.9050
   XY=              0.0001   XZ=              0.0000   YZ=              0.0000
 Octapole moment (field-independent basis, Debye-Ang**2):
  XXX=              0.0000  YYY=              0.0000  ZZZ=             -0.2949  XYY=              0.0000
  XXY=              0.0000  XXZ=             -0.2106  XZZ=              0.0000  YZZ=              0.0000
  YYZ=             -0.1153  XYZ=             -0.0003
 Hexadecapole moment (field-independent basis, Debye-Ang**3):
 XXXX=            -28.9117 YYYY=           -264.1627 ZZZZ=            -95.2433 XXXY=              0.0003
 XXXZ=              0.0000 YYYX=              0.0078 YYYZ=              0.0000 ZZZX=              0.0000
 ZZZY=              0.0000 XXYY=            -59.1177 XXZZ=            -23.0036 YYZZ=            -64.1115
 XXYZ=              0.0000 YYXZ=              0.0000 ZZXY=             -0.0029
 N-N= 1.044499740663D+02 E-N=-5.693499491816D+02  KE= 1.543940888793D+02
 Symmetry A    KE= 7.840340955708D+01
 Symmetry B    KE= 7.599067932222D+01
 1\1\GINC-GADOLINIO\Scan\RB3LYP\6-31G(d)\C4H6\MASTER3\26-Apr-2019\0\\# 
 opt=modredundant b3lyp/6-31g* geom=connectivity\\Title Card Required\\
 0,1\C,0.7242509457,0.1291529194,0.6231364349\H,1.1753057131,0.20941939
 99,1.6117821817\C,-0.7242509467,-0.1291529172,0.6231364347\H,-1.175305
 7144,-0.2094193973,1.6117821814\C,-1.5228639263,-0.2715677777,-0.44333
 75408\H,-1.152858979,-0.2051309104,-1.4635286358\H,-2.5857560408,-0.46
 13589396,-0.3280524433\C,1.5228639256,0.2715677793,-0.4433375404\H,1.1
 528589786,0.2051309116,-1.4635286355\H,2.5857560401,0.4613589413,-0.32
 80524426\\Version=EM64L-G16RevB.01\State=1-A\HF=-155.9921396,-155.9917
 951,-155.9907772,-155.9891418,-155.9870059,-155.9845907,-155.982283,-1
 55.9806377,-155.9800897,-155.980576,-155.9817152,-155.9831288,-155.984
 5111,-155.9856177,-155.9862877,-155.9864856,-155.9863348,-155.9860745,
 -155.9859513\RMSD=6.926e-09,2.666e-09,5.279e-09,6.992e-09,1.686e-09,3.
 653e-09,2.094e-09,4.305e-09,4.925e-09,2.489e-09,2.022e-09,4.040e-09,5.
 241e-09,1.401e-09,4.118e-09,5.208e-09,3.804e-09,2.654e-09,2.797e-09\PG
 =C02 [X(C4H6)]\\@


 EXPERIENCE IS THE FRUIT OF THE TREE OF ERRORS.
 Job cpu time:       0 days  0 hours 14 minutes 11.3 seconds.
 Elapsed time:       0 days  0 hours 14 minutes 37.5 seconds.
 File lengths (MBytes):  RWF=     10 Int=      0 D2E=      0 Chk=      3 Scr=      1
 Normal termination of Gaussian 16 at Fri Apr 26 11:01:24 2019.
