 Entering Gaussian System, Link 0=g16
 Initial command:
 /usr/local/gaussian/gaussian16.b1-legacy/g16/l1.exe "/scratch/master3/Gau-117841.inp" -scrdir="/scratch/master3/"
 Entering Link 1 = /usr/local/gaussian/gaussian16.b1-legacy/g16/l1.exe PID=    117842.
  
 Copyright (c) 1988-2017, Gaussian, Inc.  All Rights Reserved.
  
 This is part of the Gaussian(R) 16 program.  It is based on
 the Gaussian(R) 09 system (copyright 2009, Gaussian, Inc.),
 the Gaussian(R) 03 system (copyright 2003, Gaussian, Inc.),
 the Gaussian(R) 98 system (copyright 1998, Gaussian, Inc.),
 the Gaussian(R) 94 system (copyright 1995, Gaussian, Inc.),
 the Gaussian 92(TM) system (copyright 1992, Gaussian, Inc.),
 the Gaussian 90(TM) system (copyright 1990, Gaussian, Inc.),
 the Gaussian 88(TM) system (copyright 1988, Gaussian, Inc.),
 the Gaussian 86(TM) system (copyright 1986, Carnegie Mellon
 University), and the Gaussian 82(TM) system (copyright 1983,
 Carnegie Mellon University). Gaussian is a federally registered
 trademark of Gaussian, Inc.
  
 This software contains proprietary and confidential information,
 including trade secrets, belonging to Gaussian, Inc.
  
 This software is provided under written license and may be
 used, copied, transmitted, or stored only in accord with that
 written license.
  
 The following legend is applicable only to US Government
 contracts under FAR:
  
                    RESTRICTED RIGHTS LEGEND
  
 Use, reproduction and disclosure by the US Government is
 subject to restrictions as set forth in subparagraphs (a)
 and (c) of the Commercial Computer Software - Restricted
 Rights clause in FAR 52.227-19.
  
 Gaussian, Inc.
 340 Quinnipiac St., Bldg. 40, Wallingford CT 06492
  
  
 ---------------------------------------------------------------
 Warning -- This program may not be used in any manner that
 competes with the business of Gaussian, Inc. or will provide
 assistance to any competitor of Gaussian, Inc.  The licensee
 of this program is prohibited from giving any competitor of
 Gaussian, Inc. access to this program.  By using this program,
 the user acknowledges that Gaussian, Inc. is engaged in the
 business of creating and licensing software in the field of
 computational chemistry and represents and warrants to the
 licensee that it is not a competitor of Gaussian, Inc. and that
 it will not use this program in any manner prohibited above.
 ---------------------------------------------------------------
  

 Cite this work as:
 Gaussian 16, Revision B.01,
 M. J. Frisch, G. W. Trucks, H. B. Schlegel, G. E. Scuseria, 
 M. A. Robb, J. R. Cheeseman, G. Scalmani, V. Barone, 
 G. A. Petersson, H. Nakatsuji, X. Li, M. Caricato, A. V. Marenich, 
 J. Bloino, B. G. Janesko, R. Gomperts, B. Mennucci, H. P. Hratchian, 
 J. V. Ortiz, A. F. Izmaylov, J. L. Sonnenberg, D. Williams-Young, 
 F. Ding, F. Lipparini, F. Egidi, J. Goings, B. Peng, A. Petrone, 
 T. Henderson, D. Ranasinghe, V. G. Zakrzewski, J. Gao, N. Rega, 
 G. Zheng, W. Liang, M. Hada, M. Ehara, K. Toyota, R. Fukuda, 
 J. Hasegawa, M. Ishida, T. Nakajima, Y. Honda, O. Kitao, H. Nakai, 
 T. Vreven, K. Throssell, J. A. Montgomery, Jr., J. E. Peralta, 
 F. Ogliaro, M. J. Bearpark, J. J. Heyd, E. N. Brothers, K. N. Kudin, 
 V. N. Staroverov, T. A. Keith, R. Kobayashi, J. Normand, 
 K. Raghavachari, A. P. Rendell, J. C. Burant, S. S. Iyengar, 
 J. Tomasi, M. Cossi, J. M. Millam, M. Klene, C. Adamo, R. Cammi, 
 J. W. Ochterski, R. L. Martin, K. Morokuma, O. Farkas, 
 J. B. Foresman, and D. J. Fox, Gaussian, Inc., Wallingford CT, 2016.
 
 ******************************************
 Gaussian 16:  EM64L-G16RevB.01 20-Dec-2017
                26-Apr-2019 
 ******************************************
 %chk=butadiene_scan_camnew.chk
 -----------------------------------------------------
 # opt=modredundant cam-b3lyp/6-31G* geom=connectivity
 -----------------------------------------------------
 1/18=120,19=15,26=3,38=1,57=2/1,3;
 2/9=110,12=2,17=6,18=5,40=1/2;
 3/5=1,6=6,7=1,11=2,25=1,30=1,71=1,74=-40/1,2,3;
 4//1;
 5/5=2,38=5/2;
 6/7=2,8=2,9=2,10=2,28=1/1;
 7//1,2,3,16;
 1/18=20,19=15,26=3/3(2);
 2/9=110/2;
 99//99;
 2/9=110/2;
 3/5=1,6=6,7=1,11=2,25=1,30=1,71=1,74=-40/1,2,3;
 4/5=5,16=3,69=1/1;
 5/5=2,38=5/2;
 7//1,2,3,16;
 1/18=20,19=15,26=3/3(-5);
 2/9=110/2;
 6/7=2,8=2,9=2,10=2,19=2,28=1/1;
 99/9=1/99;
 -------------------
 Title Card Required
 -------------------
 Symbolic Z-matrix:
 Charge =  0 Multiplicity = 1
 C                     0.6319    0.44      0. 
 H                     0.53933   1.50599   0. 
 C                    -0.6319   -0.44      0. 
 H                    -0.53933  -1.50599   0. 
 C                    -1.8609    0.13109   0. 
 H                    -1.9598    1.19651   0. 
 H                    -2.73535  -0.48554   0. 
 C                     1.8609   -0.13109   0. 
 H                     1.9598   -1.19651   0. 
 H                     2.73535   0.48554   0. 
 
 The following ModRedundant input section has been read:
 D       8       1       3       5 S  18 10.000                                
 

 GradGradGradGradGradGradGradGradGradGradGradGradGradGradGradGradGradGrad
 Berny optimization.
 Initialization pass.
                           ----------------------------
                           !    Initial Parameters    !
                           ! (Angstroms and Degrees)  !
 --------------------------                            --------------------------
 ! Name  Definition              Value          Derivative Info.                !
 --------------------------------------------------------------------------------
 ! R1    R(1,2)                  1.07           estimate D2E/DX2                !
 ! R2    R(1,3)                  1.54           estimate D2E/DX2                !
 ! R3    R(1,8)                  1.3552         estimate D2E/DX2                !
 ! R4    R(3,4)                  1.07           estimate D2E/DX2                !
 ! R5    R(3,5)                  1.3552         estimate D2E/DX2                !
 ! R6    R(5,6)                  1.07           estimate D2E/DX2                !
 ! R7    R(5,7)                  1.07           estimate D2E/DX2                !
 ! R8    R(8,9)                  1.07           estimate D2E/DX2                !
 ! R9    R(8,10)                 1.07           estimate D2E/DX2                !
 ! A1    A(2,1,3)              119.8865         estimate D2E/DX2                !
 ! A2    A(2,1,8)              119.8865         estimate D2E/DX2                !
 ! A3    A(3,1,8)              120.2269         estimate D2E/DX2                !
 ! A4    A(1,3,4)              119.8865         estimate D2E/DX2                !
 ! A5    A(1,3,5)              120.2269         estimate D2E/DX2                !
 ! A6    A(4,3,5)              119.8865         estimate D2E/DX2                !
 ! A7    A(3,5,6)              120.2269         estimate D2E/DX2                !
 ! A8    A(3,5,7)              119.8865         estimate D2E/DX2                !
 ! A9    A(6,5,7)              119.8865         estimate D2E/DX2                !
 ! A10   A(1,8,9)              120.2269         estimate D2E/DX2                !
 ! A11   A(1,8,10)             119.8865         estimate D2E/DX2                !
 ! A12   A(9,8,10)             119.8865         estimate D2E/DX2                !
 ! D1    D(2,1,3,4)            180.0            estimate D2E/DX2                !
 ! D2    D(2,1,3,5)              0.0            estimate D2E/DX2                !
 ! D3    D(8,1,3,4)              0.0            estimate D2E/DX2                !
 ! D4    D(8,1,3,5)            180.0            Scan                            !
 ! D5    D(2,1,8,9)            180.0            estimate D2E/DX2                !
 ! D6    D(2,1,8,10)             0.0            estimate D2E/DX2                !
 ! D7    D(3,1,8,9)              0.0            estimate D2E/DX2                !
 ! D8    D(3,1,8,10)           180.0            estimate D2E/DX2                !
 ! D9    D(1,3,5,6)              0.0            estimate D2E/DX2                !
 ! D10   D(1,3,5,7)            180.0            estimate D2E/DX2                !
 ! D11   D(4,3,5,6)            180.0            estimate D2E/DX2                !
 ! D12   D(4,3,5,7)              0.0            estimate D2E/DX2                !
 --------------------------------------------------------------------------------
 Trust Radius=3.00D-01 FncErr=1.00D-07 GrdErr=1.00D-06 EigMax=2.50D+02 EigMin=1.00D-04
 Number of optimizations in scan=  19
 Number of steps in this run=     43 maximum allowed number of steps=    100.
 GradGradGradGradGradGradGradGradGradGradGradGradGradGradGradGradGradGrad

                          Input orientation:                          
 ---------------------------------------------------------------------
 Center     Atomic      Atomic             Coordinates (Angstroms)
 Number     Number       Type             X           Y           Z
 ---------------------------------------------------------------------
      1          6           0        0.631903    0.439999    0.000000
      2          1           0        0.539330    1.505986    0.000000
      3          6           0       -0.631903   -0.439999    0.000000
      4          1           0       -0.539330   -1.505986    0.000000
      5          6           0       -1.860897    0.131089    0.000000
      6          1           0       -1.959802    1.196508    0.000000
      7          1           0       -2.735348   -0.485544    0.000000
      8          6           0        1.860897   -0.131089    0.000000
      9          1           0        1.959802   -1.196508    0.000000
     10          1           0        2.735348    0.485544    0.000000
 ---------------------------------------------------------------------
                    Distance matrix (angstroms):
                    1          2          3          4          5
     1  C    0.000000
     2  H    1.070000   0.000000
     3  C    1.540000   2.271265   0.000000
     4  H    2.271265   3.199295   1.070000   0.000000
     5  C    2.511867   2.766123   1.355200   2.103938   0.000000
     6  H    2.699859   2.518221   2.107479   3.053066   1.070000
     7  H    3.492135   3.832716   2.103938   2.421527   1.070000
     8  C    1.355200   2.103938   2.511867   2.766123   3.731017
     9  H    2.107479   3.053066   2.699859   2.518221   4.044781
    10  H    2.103938   2.421527   3.492135   3.832716   4.609892
                    6          7          8          9         10
     6  H    0.000000
     7  H    1.852234   0.000000
     8  C    4.044781   4.609892   0.000000
     9  H    4.592365   4.748673   1.070000   0.000000
    10  H    4.748673   5.556214   1.070000   1.852234   0.000000
 Stoichiometry    C4H6
 Framework group  C2H[SGH(C4H6)]
 Deg. of freedom     9
 Full point group                 C2H     NOp   4
 Largest Abelian subgroup         C2H     NOp   4
 Largest concise Abelian subgroup C2      NOp   2
                         Standard orientation:                         
 ---------------------------------------------------------------------
 Center     Atomic      Atomic             Coordinates (Angstroms)
 Number     Number       Type             X           Y           Z
 ---------------------------------------------------------------------
      1          6           0       -0.358947    0.681217    0.000000
      2          1           0       -1.428228    0.720443    0.000000
      3          6           0        0.358947   -0.681217    0.000000
      4          1           0        1.428228   -0.720443    0.000000
      5          6           0       -0.358947   -1.830650    0.000000
      6          1           0       -1.428442   -1.797778    0.000000
      7          1           0        0.145465   -2.774296    0.000000
      8          6           0        0.358947    1.830650    0.000000
      9          1           0        1.428442    1.797778    0.000000
     10          1           0       -0.145465    2.774296    0.000000
 ---------------------------------------------------------------------
 Rotational constants (GHZ):          38.9066132           4.3527853           3.9148055
 Standard basis: 6-31G(d) (6D, 7F)
 There are    28 symmetry adapted cartesian basis functions of AG  symmetry.
 There are     8 symmetry adapted cartesian basis functions of BG  symmetry.
 There are     8 symmetry adapted cartesian basis functions of AU  symmetry.
 There are    28 symmetry adapted cartesian basis functions of BU  symmetry.
 There are    28 symmetry adapted basis functions of AG  symmetry.
 There are     8 symmetry adapted basis functions of BG  symmetry.
 There are     8 symmetry adapted basis functions of AU  symmetry.
 There are    28 symmetry adapted basis functions of BU  symmetry.
    72 basis functions,   136 primitive gaussians,    72 cartesian basis functions
    15 alpha electrons       15 beta electrons
       nuclear repulsion energy       102.4724596192 Hartrees.
 NAtoms=   10 NActive=   10 NUniq=    5 SFac= 4.00D+00 NAtFMM=   60 NAOKFM=F Big=F
 Integral buffers will be    131072 words long.
 Raffenetti 2 integral format.
 Two-electron integral symmetry is turned on.
 One-electron integrals computed using PRISM.
 NBasis=    72 RedAO= T EigKep=  4.04D-03  NBF=    28     8     8    28
 NBsUse=    72 1.00D-06 EigRej= -1.00D+00 NBFU=    28     8     8    28
 ExpMin= 1.61D-01 ExpMax= 3.05D+03 ExpMxC= 4.57D+02 IAcc=3 IRadAn=         5 AccDes= 0.00D+00
 Harris functional with IExCor=20419 and IRadAn=       5 diagonalized for initial guess.
 HarFok:  IExCor=20419 AccDes= 0.00D+00 IRadAn=         5 IDoV= 1 UseB2=F ITyADJ=14
 ICtDFT=  3500011 ScaDFX=  1.000000  1.000000  1.000000  1.000000
 FoFCou: FMM=F IPFlag=           0 FMFlag=      100000 FMFlg1=           0
         NFxFlg=           0 DoJE=T BraDBF=F KetDBF=T FulRan=T
         wScrn=  0.000000 ICntrl=       500 IOpCl=  0 I1Cent=   200000004 NGrid=           0
         NMat0=    1 NMatS0=      1 NMatT0=    0 NMatD0=    1 NMtDS0=    0 NMtDT0=    0
 Petite list used in FoFCou.
 Initial guess orbital symmetries:
       Occupied  (BU) (AG) (AG) (BU) (AG) (BU) (AG) (BU) (AG) (BU)
                 (AG) (BU) (AG) (AU) (BG)
       Virtual   (AU) (BG) (BU) (AG) (BU) (BU) (AG) (AG) (BU) (AG)
                 (BU) (BU) (AG) (AU) (BG) (BU) (AG) (BG) (BU) (AU)
                 (AG) (AG) (BU) (AG) (BU) (BU) (AG) (BU) (AG) (AG)
                 (BU) (AG) (AU) (BU) (BG) (AU) (BG) (AU) (AG) (AG)
                 (BU) (BU) (BG) (BU) (AG) (AG) (AU) (BU) (BG) (AG)
                 (BU) (BU) (AG) (AG) (BU) (AG) (BU)
 The electronic state of the initial guess is 1-AG.
 Keep R1 ints in memory in symmetry-blocked form, NReq=8821433.
 Requested convergence on RMS density matrix=1.00D-08 within 128 cycles.
 Requested convergence on MAX density matrix=1.00D-06.
 Requested convergence on             energy=1.00D-06.
 No special actions if energy rises.
 Integral accuracy reduced to 1.0D-05 until final iterations.
 Initial convergence to 1.0D-05 achieved.  Increase integral accuracy.
 SCF Done:  E(RCAM-B3LYP) =  -155.879709705     A.U. after   11 cycles
            NFock= 11  Conv=0.26D-08     -V/T= 2.0104

 **********************************************************************

            Population analysis using the SCF Density.

 **********************************************************************

 Orbital symmetries:
       Occupied  (AG) (BU) (BU) (AG) (AG) (BU) (AG) (BU) (AG) (BU)
                 (BU) (AG) (AG) (AU) (BG)
       Virtual   (AU) (BG) (BU) (AG) (BU) (BU) (AG) (AG) (BU) (AG)
                 (BU) (BU) (AG) (AU) (BG) (BU) (AG) (BG) (BU) (AU)
                 (AG) (AG) (BU) (AG) (BU) (BU) (AG) (BU) (AG) (AG)
                 (BU) (AG) (BU) (AU) (BG) (AU) (BG) (AU) (AG) (AG)
                 (BU) (BU) (BG) (BU) (AG) (AG) (AU) (BU) (BG) (AG)
                 (BU) (BU) (AG) (AG) (BU) (AG) (BU)
 The electronic state is 1-AG.
 Alpha  occ. eigenvalues --  -10.26970 -10.26951 -10.25277 -10.25277  -0.87185
 Alpha  occ. eigenvalues --   -0.80730  -0.66821  -0.62932  -0.53191  -0.52472
 Alpha  occ. eigenvalues --   -0.45545  -0.45110  -0.40666  -0.37323  -0.28294
 Alpha virt. eigenvalues --    0.03275   0.12863   0.17332   0.17956   0.18308
 Alpha virt. eigenvalues --    0.23544   0.24012   0.26520   0.37353   0.37714
 Alpha virt. eigenvalues --    0.43181   0.52922   0.58095   0.59516   0.64230
 Alpha virt. eigenvalues --    0.66864   0.67655   0.71655   0.73363   0.73526
 Alpha virt. eigenvalues --    0.75550   0.92500   0.93563   0.94282   0.96405
 Alpha virt. eigenvalues --    0.99949   1.01137   1.03549   1.13101   1.15776
 Alpha virt. eigenvalues --    1.20261   1.38438   1.41769   1.43061   1.50624
 Alpha virt. eigenvalues --    1.59975   1.72596   1.82695   1.83116   1.97680
 Alpha virt. eigenvalues --    2.03888   2.12997   2.17370   2.20783   2.23770
 Alpha virt. eigenvalues --    2.36770   2.46303   2.48229   2.48300   2.66727
 Alpha virt. eigenvalues --    2.77878   2.93191   2.99174   4.13246   4.20232
 Alpha virt. eigenvalues --    4.28613   4.49945
          Condensed to atoms (all electrons):
               1          2          3          4          5          6
     1  C    4.785886   0.373098   0.423910  -0.041940  -0.032067  -0.009956
     2  H    0.373098   0.575030  -0.041940   0.003463  -0.003415   0.004106
     3  C    0.423910  -0.041940   4.785886   0.373098   0.644757  -0.037220
     4  H   -0.041940   0.003463   0.373098   0.575030  -0.048151   0.005207
     5  C   -0.032067  -0.003415   0.644757  -0.048151   5.033968   0.377968
     6  H   -0.009956   0.004106  -0.037220   0.005207   0.377968   0.551242
     7  H    0.003749   0.000006  -0.025066  -0.006035   0.370221  -0.038036
     8  C    0.644757  -0.048151  -0.032067  -0.003415   0.002371   0.000385
     9  H   -0.037220   0.005207  -0.009956   0.004106   0.000385   0.000012
    10  H   -0.025066  -0.006035   0.003749   0.000006  -0.000183  -0.000005
               7          8          9         10
     1  C    0.003749   0.644757  -0.037220  -0.025066
     2  H    0.000006  -0.048151   0.005207  -0.006035
     3  C   -0.025066  -0.032067  -0.009956   0.003749
     4  H   -0.006035  -0.003415   0.004106   0.000006
     5  C    0.370221   0.002371   0.000385  -0.000183
     6  H   -0.038036   0.000385   0.000012  -0.000005
     7  H    0.549271  -0.000183  -0.000005   0.000003
     8  C   -0.000183   5.033968   0.377968   0.370221
     9  H   -0.000005   0.377968   0.551242  -0.038036
    10  H    0.000003   0.370221  -0.038036   0.549271
 Mulliken charges:
               1
     1  C   -0.085150
     2  H    0.138632
     3  C   -0.085150
     4  H    0.138632
     5  C   -0.345854
     6  H    0.146297
     7  H    0.146076
     8  C   -0.345854
     9  H    0.146297
    10  H    0.146076
 Sum of Mulliken charges =   0.00000
 Mulliken charges with hydrogens summed into heavy atoms:
               1
     1  C    0.053482
     3  C    0.053482
     5  C   -0.053482
     8  C   -0.053482
 Electronic spatial extent (au):  <R**2>=            340.1995
 Charge=              0.0000 electrons
 Dipole moment (field-independent basis, Debye):
    X=              0.0000    Y=              0.0000    Z=              0.0000  Tot=              0.0000
 Quadrupole moment (field-independent basis, Debye-Ang):
   XX=            -22.2423   YY=            -23.0717   ZZ=            -28.1313
   XY=             -0.2728   XZ=              0.0000   YZ=              0.0000
 Traceless Quadrupole moment (field-independent basis, Debye-Ang):
   XX=              2.2395   YY=              1.4101   ZZ=             -3.6496
   XY=             -0.2728   XZ=              0.0000   YZ=              0.0000
 Octapole moment (field-independent basis, Debye-Ang**2):
  XXX=              0.0000  YYY=             -0.0000  ZZZ=              0.0000  XYY=             -0.0000
  XXY=              0.0000  XXZ=              0.0000  XZZ=             -0.0000  YZZ=              0.0000
  YYZ=              0.0000  XYZ=              0.0000
 Hexadecapole moment (field-independent basis, Debye-Ang**3):
 XXXX=            -68.0192 YYYY=           -336.5065 ZZZZ=            -29.4393 XXXY=            -16.2909
 XXXZ=              0.0000 YYYX=            -23.2125 YYYZ=              0.0000 ZZZX=              0.0000
 ZZZY=              0.0000 XXYY=            -69.4089 XXZZ=            -18.3550 YYZZ=            -72.6403
 XXYZ=              0.0000 YYXZ=              0.0000 ZZXY=             -6.6558
 N-N= 1.024724596192D+02 E-N=-5.652427197991D+02  KE= 1.542720348809D+02
 Symmetry AG   KE= 7.654149613979D+01
 Symmetry BG   KE= 2.220437352690D+00
 Symmetry AU   KE= 1.950833180656D+00
 Symmetry BU   KE= 7.355926820778D+01
 Calling FoFJK, ICntrl=      2127 FMM=F ISym2X=1 I1Cent= 0 IOpClX= 0 NMat=1 NMatS=1 NMatT=0.
 ***** Axes restored to original set *****
 -------------------------------------------------------------------
 Center     Atomic                   Forces (Hartrees/Bohr)
 Number     Number              X              Y              Z
 -------------------------------------------------------------------
      1        6          -0.001040014   -0.061590355   -0.000000000
      2        1          -0.006727578    0.010922555   -0.000000000
      3        6           0.001040014    0.061590355   -0.000000000
      4        1           0.006727578   -0.010922555   -0.000000000
      5        6           0.035883585   -0.021944844   -0.000000000
      6        1          -0.004520702    0.010682522   -0.000000000
      7        1          -0.011364205   -0.002687151   -0.000000000
      8        6          -0.035883585    0.021944844   -0.000000000
      9        1           0.004520702   -0.010682522   -0.000000000
     10        1           0.011364205    0.002687151   -0.000000000
 -------------------------------------------------------------------
 Cartesian Forces:  Max     0.061590355 RMS     0.019998571

 GradGradGradGradGradGradGradGradGradGradGradGradGradGradGradGradGradGrad
 Berny optimization.
 FormGI is forming the generalized inverse of G from B-inverse, IUseBI=4.
 Internal  Forces:  Max     0.043768314 RMS     0.011456687
 Search for a local minimum.
 Step number   1 out of a maximum of   43 on scan point     1 out of    19
 All quantities printed in internal units (Hartrees-Bohrs-Radians)
 Mixed Optimization -- RFO/linear search
 Second derivative matrix not updated -- first step.
 ITU=  0
     Eigenvalues ---    0.00848   0.01459   0.02681   0.02681   0.02681
     Eigenvalues ---    0.02681   0.16000   0.16000   0.16000   0.16000
     Eigenvalues ---    0.16000   0.16000   0.22000   0.22000   0.28519
     Eigenvalues ---    0.37230   0.37230   0.37230   0.37230   0.37230
     Eigenvalues ---    0.37230   0.53930   0.539301000.000001000.00000
     Eigenvalues --- 1000.000001000.000001000.000001000.000001000.00000
     Eigenvalues --- 1000.000001000.000001000.00000
 RFO step:  Lambda=-1.30031055D-02 EMin= 8.47961735D-03
 Linear search not attempted -- first point.
 Iteration  1 RMS(Cart)=  0.03925817 RMS(Int)=  0.00063116
 Iteration  2 RMS(Cart)=  0.00108298 RMS(Int)=  0.00000031
 Iteration  3 RMS(Cart)=  0.00000039 RMS(Int)=  0.00000000
 Iteration  1 RMS(Cart)=  0.00000000 RMS(Int)=  0.00000000
 ClnCor:  largest displacement from symmetrization is 1.12D-11 for atom     5.
 Variable       Old X    -DE/DX   Delta X   Delta X   Delta X     New X
                                 (Linear)    (Quad)   (Total)
    R1        2.02201   0.01146   0.00000   0.02975   0.02975   2.05176
    R2        2.91018  -0.04377   0.00000  -0.14678  -0.14678   2.76340
    R3        2.56096  -0.02401   0.00000  -0.04348  -0.04348   2.51748
    R4        2.02201   0.01146   0.00000   0.02975   0.02975   2.05176
    R5        2.56096  -0.02401   0.00000  -0.04348  -0.04348   2.51748
    R6        2.02201   0.01105   0.00000   0.02869   0.02869   2.05070
    R7        2.02201   0.01084   0.00000   0.02812   0.02812   2.05013
    R8        2.02201   0.01105   0.00000   0.02869   0.02869   2.05070
    R9        2.02201   0.01084   0.00000   0.02812   0.02812   2.05013
    A1        2.09241  -0.01080   0.00000  -0.05502  -0.05502   2.03740
    A2        2.09241   0.00084   0.00000   0.01227   0.01227   2.10469
    A3        2.09836   0.00996   0.00000   0.04274   0.04274   2.14110
    A4        2.09241  -0.01080   0.00000  -0.05502  -0.05502   2.03740
    A5        2.09836   0.00996   0.00000   0.04274   0.04274   2.14110
    A6        2.09241   0.00084   0.00000   0.01227   0.01227   2.10469
    A7        2.09836   0.00180   0.00000   0.01042   0.01042   2.10878
    A8        2.09241   0.00350   0.00000   0.02023   0.02023   2.11264
    A9        2.09241  -0.00530   0.00000  -0.03065  -0.03065   2.06177
   A10        2.09836   0.00180   0.00000   0.01042   0.01042   2.10878
   A11        2.09241   0.00350   0.00000   0.02023   0.02023   2.11264
   A12        2.09241  -0.00530   0.00000  -0.03065  -0.03065   2.06177
    D1        3.14159  -0.00000   0.00000  -0.00000   0.00000   3.14159
    D2        0.00000  -0.00000   0.00000  -0.00000   0.00000   0.00000
    D3        0.00000  -0.00000   0.00000  -0.00000   0.00000   0.00000
    D4        3.14159  -0.00000   0.00000   0.00000   0.00000   3.14159
    D5        3.14159   0.00000   0.00000  -0.00000   0.00000   3.14159
    D6        0.00000   0.00000   0.00000  -0.00000   0.00000   0.00000
    D7        0.00000   0.00000   0.00000  -0.00000   0.00000   0.00000
    D8        3.14159  -0.00000   0.00000  -0.00000   0.00000   3.14159
    D9        0.00000   0.00000   0.00000   0.00000   0.00000   0.00000
   D10        3.14159  -0.00000   0.00000  -0.00000   0.00000   3.14159
   D11        3.14159   0.00000   0.00000   0.00000   0.00000   3.14159
   D12        0.00000   0.00000   0.00000   0.00000   0.00000   0.00000
         Item               Value     Threshold  Converged?
 Maximum Force            0.043768     0.000450     NO 
 RMS     Force            0.011634     0.000300     NO 
 Maximum Displacement     0.102695     0.001800     NO 
 RMS     Displacement     0.039838     0.001200     NO 
 Predicted change in Energy=-6.782722D-03
 GradGradGradGradGradGradGradGradGradGradGradGradGradGradGradGradGradGrad

                          Input orientation:                          
 ---------------------------------------------------------------------
 Center     Atomic      Atomic             Coordinates (Angstroms)
 Number     Number       Type             X           Y           Z
 ---------------------------------------------------------------------
      1          6           0        0.610575    0.402243    0.000000
      2          1           0        0.484986    1.480699    0.000000
      3          6           0       -0.610575   -0.402243    0.000000
      4          1           0       -0.484986   -1.480699    0.000000
      5          6           0       -1.828088    0.138492    0.000000
      6          1           0       -1.958017    1.215868    0.000000
      7          1           0       -2.716695   -0.483879    0.000000
      8          6           0        1.828088   -0.138492    0.000000
      9          1           0        1.958017   -1.215868    0.000000
     10          1           0        2.716695    0.483879    0.000000
 ---------------------------------------------------------------------
                    Distance matrix (angstroms):
                    1          2          3          4          5
     1  C    0.000000
     2  H    1.085744   0.000000
     3  C    1.462328   2.178468   0.000000
     4  H    2.178468   3.116204   1.085744   0.000000
     5  C    2.452884   2.674291   1.332191   2.103735   0.000000
     6  H    2.694374   2.457315   2.105679   3.072669   1.085182
     7  H    3.443245   3.756372   2.107702   2.444213   1.084882
     8  C    1.332191   2.103735   2.452884   2.674291   3.666652
     9  H    2.105679   3.072669   2.694374   2.457315   4.021055
    10  H    2.107702   2.444213   3.443245   3.756372   4.557888
                    6          7          8          9         10
     6  H    0.000000
     7  H    1.861380   0.000000
     8  C    4.021055   4.557888   0.000000
     9  H    4.609627   4.731674   1.085182   0.000000
    10  H    4.731674   5.518903   1.084882   1.861380   0.000000
 Stoichiometry    C4H6
 Framework group  C2H[SGH(C4H6)]
 Deg. of freedom     9
 Full point group                 C2H     NOp   4
 Largest Abelian subgroup         C2H     NOp   4
 Largest concise Abelian subgroup C2      NOp   2
                         Standard orientation:                         
 ---------------------------------------------------------------------
 Center     Atomic      Atomic             Coordinates (Angstroms)
 Number     Number       Type             X           Y           Z
 ---------------------------------------------------------------------
      1          6           0       -0.334258    0.650287    0.000000
      2          1           0       -1.419965    0.641389    0.000000
      3          6           0        0.334258   -0.650287    0.000000
      4          1           0        1.419965   -0.641389    0.000000
      5          6           0       -0.334258   -1.802597    0.000000
      6          1           0       -1.419358   -1.815926    0.000000
      7          1           0        0.188956   -2.752974    0.000000
      8          6           0        0.334258    1.802597    0.000000
      9          1           0        1.419358    1.815926    0.000000
     10          1           0       -0.188956    2.752974    0.000000
 ---------------------------------------------------------------------
 Rotational constants (GHZ):          41.4017515           4.5027086           4.0610438
 Standard basis: 6-31G(d) (6D, 7F)
 There are    28 symmetry adapted cartesian basis functions of AG  symmetry.
 There are     8 symmetry adapted cartesian basis functions of BG  symmetry.
 There are     8 symmetry adapted cartesian basis functions of AU  symmetry.
 There are    28 symmetry adapted cartesian basis functions of BU  symmetry.
 There are    28 symmetry adapted basis functions of AG  symmetry.
 There are     8 symmetry adapted basis functions of BG  symmetry.
 There are     8 symmetry adapted basis functions of AU  symmetry.
 There are    28 symmetry adapted basis functions of BU  symmetry.
    72 basis functions,   136 primitive gaussians,    72 cartesian basis functions
    15 alpha electrons       15 beta electrons
       nuclear repulsion energy       104.0823437322 Hartrees.
 NAtoms=   10 NActive=   10 NUniq=    5 SFac= 4.00D+00 NAtFMM=   60 NAOKFM=F Big=F
 Integral buffers will be    131072 words long.
 Raffenetti 2 integral format.
 Two-electron integral symmetry is turned on.
 One-electron integrals computed using PRISM.
 NBasis=    72 RedAO= T EigKep=  3.48D-03  NBF=    28     8     8    28
 NBsUse=    72 1.00D-06 EigRej= -1.00D+00 NBFU=    28     8     8    28
 Initial guess from the checkpoint file:  "butadiene_scan_camnew.chk"
 B after Tr=     0.000000    0.000000    0.000000
         Rot=    0.999984   -0.000000   -0.000000   -0.005711 Ang=  -0.65 deg.
 Initial guess orbital symmetries:
       Occupied  (AG) (BU) (BU) (AG) (AG) (BU) (AG) (BU) (AG) (BU)
                 (BU) (AG) (AG) (AU) (BG)
       Virtual   (AU) (BG) (BU) (AG) (BU) (BU) (AG) (AG) (BU) (AG)
                 (BU) (BU) (AG) (AU) (BG) (BU) (AG) (BG) (BU) (AU)
                 (AG) (AG) (BU) (AG) (BU) (BU) (AG) (BU) (AG) (AG)
                 (BU) (AG) (BU) (AU) (BG) (AU) (BG) (AU) (AG) (AG)
                 (BU) (BU) (BG) (BU) (AG) (AG) (AU) (BU) (BG) (AG)
                 (BU) (BU) (AG) (AG) (BU) (AG) (BU)
 ExpMin= 1.61D-01 ExpMax= 3.05D+03 ExpMxC= 4.57D+02 IAcc=3 IRadAn=         5 AccDes= 0.00D+00
 Harris functional with IExCor=20419 and IRadAn=       5 diagonalized for initial guess.
 HarFok:  IExCor=20419 AccDes= 0.00D+00 IRadAn=         5 IDoV= 1 UseB2=F ITyADJ=14
 ICtDFT=  3500011 ScaDFX=  1.000000  1.000000  1.000000  1.000000
 FoFCou: FMM=F IPFlag=           0 FMFlag=      100000 FMFlg1=           0
         NFxFlg=           0 DoJE=T BraDBF=F KetDBF=T FulRan=T
         wScrn=  0.000000 ICntrl=       500 IOpCl=  0 I1Cent=   200000004 NGrid=           0
         NMat0=    1 NMatS0=      1 NMatT0=    0 NMatD0=    1 NMtDS0=    0 NMtDT0=    0
 Petite list used in FoFCou.
 Keep R1 ints in memory in symmetry-blocked form, NReq=8821433.
 Requested convergence on RMS density matrix=1.00D-08 within 128 cycles.
 Requested convergence on MAX density matrix=1.00D-06.
 Requested convergence on             energy=1.00D-06.
 No special actions if energy rises.
 Integral accuracy reduced to 1.0D-05 until final iterations.
 Initial convergence to 1.0D-05 achieved.  Increase integral accuracy.
 SCF Done:  E(RCAM-B3LYP) =  -155.886889027     A.U. after   10 cycles
            NFock= 10  Conv=0.64D-08     -V/T= 2.0096
 Calling FoFJK, ICntrl=      2127 FMM=F ISym2X=1 I1Cent= 0 IOpClX= 0 NMat=1 NMatS=1 NMatT=0.
 ***** Axes restored to original set *****
 -------------------------------------------------------------------
 Center     Atomic                   Forces (Hartrees/Bohr)
 Number     Number              X              Y              Z
 -------------------------------------------------------------------
      1        6          -0.000597084   -0.008367665   -0.000000000
      2        1          -0.000064587    0.001782414   -0.000000000
      3        6           0.000597084    0.008367665   -0.000000000
      4        1           0.000064587   -0.001782414   -0.000000000
      5        6          -0.000018501   -0.004721137   -0.000000000
      6        1          -0.001926009    0.000535444   -0.000000000
      7        1          -0.001339708    0.001976227   -0.000000000
      8        6           0.000018501    0.004721137   -0.000000000
      9        1           0.001926009   -0.000535444   -0.000000000
     10        1           0.001339708   -0.001976227   -0.000000000
 -------------------------------------------------------------------
 Cartesian Forces:  Max     0.008367665 RMS     0.002652565

 GradGradGradGradGradGradGradGradGradGradGradGradGradGradGradGradGradGrad
 Berny optimization.
 Using GEDIIS/GDIIS optimizer.
 FormGI is forming the generalized inverse of G from B-inverse, IUseBI=4.
 Internal  Forces:  Max     0.004792283 RMS     0.001840080
 Search for a local minimum.
 Step number   2 out of a maximum of   43 on scan point     1 out of    19
 All quantities printed in internal units (Hartrees-Bohrs-Radians)
 Mixed Optimization -- RFO/linear search
 Update second derivatives using D2CorX and points    1    2
 DE= -7.18D-03 DEPred=-6.78D-03 R= 1.06D+00
 TightC=F SS=  1.41D+00  RLast= 2.08D-01 DXNew= 5.0454D-01 6.2387D-01
 Trust test= 1.06D+00 RLast= 2.08D-01 DXMaxT set to 5.05D-01
 ITU=  1  0
 Use linear search instead of GDIIS.
     Eigenvalues ---    0.00882   0.01504   0.02681   0.02681   0.02681
     Eigenvalues ---    0.02681   0.15007   0.16000   0.16000   0.16000
     Eigenvalues ---    0.16000   0.16262   0.20167   0.22000   0.30393
     Eigenvalues ---    0.36792   0.37230   0.37230   0.37230   0.37230
     Eigenvalues ---    0.37540   0.53930   0.566851000.000001000.00000
     Eigenvalues --- 1000.000001000.000001000.000001000.000001000.00000
     Eigenvalues --- 1000.000001000.000001000.00000
 RFO step:  Lambda=-5.02388033D-04 EMin= 8.82313573D-03
 Quartic linear search produced a step of  0.06326.
 Iteration  1 RMS(Cart)=  0.01707915 RMS(Int)=  0.00008487
 Iteration  2 RMS(Cart)=  0.00012425 RMS(Int)=  0.00000000
 Iteration  3 RMS(Cart)=  0.00000000 RMS(Int)=  0.00000000
 Iteration  1 RMS(Cart)=  0.00000000 RMS(Int)=  0.00000000
 ClnCor:  largest displacement from symmetrization is 3.30D-11 for atom     8.
 Variable       Old X    -DE/DX   Delta X   Delta X   Delta X     New X
                                 (Linear)    (Quad)   (Total)
    R1        2.05176   0.00178   0.00188   0.00406   0.00594   2.05770
    R2        2.76340  -0.00022  -0.00929   0.00456  -0.00472   2.75868
    R3        2.51748   0.00210  -0.00275   0.00551   0.00276   2.52024
    R4        2.05176   0.00178   0.00188   0.00406   0.00594   2.05770
    R5        2.51748   0.00210  -0.00275   0.00551   0.00276   2.52024
    R6        2.05070   0.00076   0.00182   0.00120   0.00301   2.05371
    R7        2.05013  -0.00004   0.00178  -0.00106   0.00072   2.05085
    R8        2.05070   0.00076   0.00182   0.00120   0.00301   2.05371
    R9        2.05013  -0.00004   0.00178  -0.00106   0.00072   2.05085
    A1        2.03740  -0.00225  -0.00348  -0.00822  -0.01170   2.02570
    A2        2.10469  -0.00254   0.00078  -0.01319  -0.01241   2.09228
    A3        2.14110   0.00479   0.00270   0.02140   0.02411   2.16520
    A4        2.03740  -0.00225  -0.00348  -0.00822  -0.01170   2.02570
    A5        2.14110   0.00479   0.00270   0.02140   0.02411   2.16520
    A6        2.10469  -0.00254   0.00078  -0.01319  -0.01241   2.09228
    A7        2.10878   0.00089   0.00066   0.00546   0.00612   2.11489
    A8        2.11264   0.00200   0.00128   0.01233   0.01361   2.12625
    A9        2.06177  -0.00289  -0.00194  -0.01779  -0.01973   2.04204
   A10        2.10878   0.00089   0.00066   0.00546   0.00612   2.11489
   A11        2.11264   0.00200   0.00128   0.01233   0.01361   2.12625
   A12        2.06177  -0.00289  -0.00194  -0.01779  -0.01973   2.04204
    D1        3.14159  -0.00000   0.00000   0.00000   0.00000   3.14159
    D2        0.00000   0.00000   0.00000   0.00000   0.00000   0.00000
    D3        0.00000  -0.00000   0.00000  -0.00000   0.00000   0.00000
    D4        3.14159  -0.00000   0.00000   0.00000   0.00000   3.14159
    D5        3.14159   0.00000   0.00000  -0.00000   0.00000   3.14159
    D6        0.00000  -0.00000   0.00000  -0.00000   0.00000   0.00000
    D7        0.00000   0.00000   0.00000  -0.00000   0.00000   0.00000
    D8        3.14159  -0.00000   0.00000  -0.00000   0.00000   3.14159
    D9        0.00000   0.00000   0.00000  -0.00000   0.00000   0.00000
   D10        3.14159  -0.00000   0.00000   0.00000   0.00000   3.14159
   D11        3.14159   0.00000   0.00000  -0.00000   0.00000   3.14159
   D12        0.00000   0.00000   0.00000   0.00000   0.00000   0.00000
         Item               Value     Threshold  Converged?
 Maximum Force            0.004792     0.000450     NO 
 RMS     Force            0.001869     0.000300     NO 
 Maximum Displacement     0.052368     0.001800     NO 
 RMS     Displacement     0.016995     0.001200     NO 
 Predicted change in Energy=-2.899444D-04
 GradGradGradGradGradGradGradGradGradGradGradGradGradGradGradGradGradGrad

                          Input orientation:                          
 ---------------------------------------------------------------------
 Center     Atomic      Atomic             Coordinates (Angstroms)
 Number     Number       Type             X           Y           Z
 ---------------------------------------------------------------------
      1          6           0        0.615491    0.392361    0.000000
      2          1           0        0.493125    1.474350    0.000000
      3          6           0       -0.615491   -0.392361    0.000000
      4          1           0       -0.493125   -1.474350    0.000000
      5          6           0       -1.839212    0.137860    0.000000
      6          1           0       -1.985729    1.214715    0.000000
      7          1           0       -2.730934   -0.480707    0.000000
      8          6           0        1.839212   -0.137860    0.000000
      9          1           0        1.985729   -1.214715    0.000000
     10          1           0        2.730934    0.480707    0.000000
 ---------------------------------------------------------------------
                    Distance matrix (angstroms):
                    1          2          3          4          5
     1  C    0.000000
     2  H    1.088887   0.000000
     3  C    1.459830   2.171092   0.000000
     4  H    2.171092   3.109264   1.088887   0.000000
     5  C    2.467861   2.688122   1.333652   2.100280   0.000000
     6  H    2.728115   2.492413   2.111929   3.075539   1.086776
     7  H    3.458440   3.770518   2.117287   2.448493   1.085262
     8  C    1.333652   2.100280   2.467861   2.688122   3.688743
     9  H    2.111929   3.075539   2.728115   2.492413   4.057047
    10  H    2.117287   2.448493   3.458440   3.770518   4.582988
                    6          7          8          9         10
     6  H    0.000000
     7  H    1.851968   0.000000
     8  C    4.057047   4.582988   0.000000
     9  H    4.655599   4.773434   1.086776   0.000000
    10  H    4.773434   5.545837   1.085262   1.851968   0.000000
 Stoichiometry    C4H6
 Framework group  C2H[SGH(C4H6)]
 Deg. of freedom     9
 Full point group                 C2H     NOp   4
 Largest Abelian subgroup         C2H     NOp   4
 Largest concise Abelian subgroup C2      NOp   2
                         Standard orientation:                         
 ---------------------------------------------------------------------
 Center     Atomic      Atomic             Coordinates (Angstroms)
 Number     Number       Type             X           Y           Z
 ---------------------------------------------------------------------
      1          6           0       -0.326796    0.652672    0.000000
      2          1           0       -1.415636    0.642539    0.000000
      3          6           0        0.326796   -0.652672    0.000000
      4          1           0        1.415636   -0.642539    0.000000
      5          6           0       -0.326796   -1.815189    0.000000
      6          1           0       -1.413018   -1.849873    0.000000
      7          1           0        0.196514   -2.765947    0.000000
      8          6           0        0.326796    1.815189    0.000000
      9          1           0        1.413018    1.849873    0.000000
     10          1           0       -0.196514    2.765947    0.000000
 ---------------------------------------------------------------------
 Rotational constants (GHZ):          42.2500988           4.4425738           4.0198851
 Standard basis: 6-31G(d) (6D, 7F)
 There are    28 symmetry adapted cartesian basis functions of AG  symmetry.
 There are     8 symmetry adapted cartesian basis functions of BG  symmetry.
 There are     8 symmetry adapted cartesian basis functions of AU  symmetry.
 There are    28 symmetry adapted cartesian basis functions of BU  symmetry.
 There are    28 symmetry adapted basis functions of AG  symmetry.
 There are     8 symmetry adapted basis functions of BG  symmetry.
 There are     8 symmetry adapted basis functions of AU  symmetry.
 There are    28 symmetry adapted basis functions of BU  symmetry.
    72 basis functions,   136 primitive gaussians,    72 cartesian basis functions
    15 alpha electrons       15 beta electrons
       nuclear repulsion energy       103.8331105752 Hartrees.
 NAtoms=   10 NActive=   10 NUniq=    5 SFac= 4.00D+00 NAtFMM=   60 NAOKFM=F Big=F
 Integral buffers will be    131072 words long.
 Raffenetti 2 integral format.
 Two-electron integral symmetry is turned on.
 One-electron integrals computed using PRISM.
 NBasis=    72 RedAO= T EigKep=  3.55D-03  NBF=    28     8     8    28
 NBsUse=    72 1.00D-06 EigRej= -1.00D+00 NBFU=    28     8     8    28
 Initial guess from the checkpoint file:  "butadiene_scan_camnew.chk"
 B after Tr=    -0.000000   -0.000000    0.000000
         Rot=    0.999998   -0.000000   -0.000000   -0.001871 Ang=  -0.21 deg.
 Initial guess orbital symmetries:
       Occupied  (AG) (BU) (BU) (AG) (AG) (BU) (AG) (BU) (BU) (AG)
                 (AG) (BU) (AG) (AU) (BG)
       Virtual   (AU) (BG) (BU) (AG) (BU) (AG) (BU) (AG) (BU) (AG)
                 (BU) (BU) (AG) (AU) (BG) (AG) (BU) (BG) (AU) (BU)
                 (AG) (AG) (BU) (AG) (BU) (BU) (AG) (BU) (AG) (AG)
                 (BU) (AG) (AU) (BU) (BG) (AU) (BG) (AU) (AG) (AG)
                 (BU) (BU) (BG) (BU) (AG) (AG) (BU) (AU) (BG) (AG)
                 (BU) (BU) (AG) (AG) (BU) (AG) (BU)
 ExpMin= 1.61D-01 ExpMax= 3.05D+03 ExpMxC= 4.57D+02 IAcc=3 IRadAn=         5 AccDes= 0.00D+00
 Harris functional with IExCor=20419 and IRadAn=       5 diagonalized for initial guess.
 HarFok:  IExCor=20419 AccDes= 0.00D+00 IRadAn=         5 IDoV= 1 UseB2=F ITyADJ=14
 ICtDFT=  3500011 ScaDFX=  1.000000  1.000000  1.000000  1.000000
 FoFCou: FMM=F IPFlag=           0 FMFlag=      100000 FMFlg1=           0
         NFxFlg=           0 DoJE=T BraDBF=F KetDBF=T FulRan=T
         wScrn=  0.000000 ICntrl=       500 IOpCl=  0 I1Cent=   200000004 NGrid=           0
         NMat0=    1 NMatS0=      1 NMatT0=    0 NMatD0=    1 NMtDS0=    0 NMtDT0=    0
 Petite list used in FoFCou.
 Keep R1 ints in memory in symmetry-blocked form, NReq=8821433.
 Requested convergence on RMS density matrix=1.00D-08 within 128 cycles.
 Requested convergence on MAX density matrix=1.00D-06.
 Requested convergence on             energy=1.00D-06.
 No special actions if energy rises.
 Integral accuracy reduced to 1.0D-05 until final iterations.
 Initial convergence to 1.0D-05 achieved.  Increase integral accuracy.
 SCF Done:  E(RCAM-B3LYP) =  -155.887180170     A.U. after    9 cycles
            NFock=  9  Conv=0.40D-08     -V/T= 2.0097
 Calling FoFJK, ICntrl=      2127 FMM=F ISym2X=1 I1Cent= 0 IOpClX= 0 NMat=1 NMatS=1 NMatT=0.
 ***** Axes restored to original set *****
 -------------------------------------------------------------------
 Center     Atomic                   Forces (Hartrees/Bohr)
 Number     Number              X              Y              Z
 -------------------------------------------------------------------
      1        6           0.000311641   -0.000314632   -0.000000000
      2        1           0.000378154    0.000227876   -0.000000000
      3        6          -0.000311641    0.000314632   -0.000000000
      4        1          -0.000378154   -0.000227876   -0.000000000
      5        6           0.001306456   -0.000774887   -0.000000000
      6        1          -0.000521264    0.000003587   -0.000000000
      7        1           0.000197428    0.000440998   -0.000000000
      8        6          -0.001306456    0.000774887   -0.000000000
      9        1           0.000521264   -0.000003587   -0.000000000
     10        1          -0.000197428   -0.000440998   -0.000000000
 -------------------------------------------------------------------
 Cartesian Forces:  Max     0.001306456 RMS     0.000462133

 GradGradGradGradGradGradGradGradGradGradGradGradGradGradGradGradGradGrad
 Berny optimization.
 Using GEDIIS/GDIIS optimizer.
 FormGI is forming the generalized inverse of G from B-inverse, IUseBI=4.
 Internal  Forces:  Max     0.001032885 RMS     0.000364465
 Search for a local minimum.
 Step number   3 out of a maximum of   43 on scan point     1 out of    19
 All quantities printed in internal units (Hartrees-Bohrs-Radians)
 Mixed Optimization -- En-DIIS/RFO-DIIS
 Update second derivatives using D2CorX and points    1    2    3
 DE= -2.91D-04 DEPred=-2.90D-04 R= 1.00D+00
 TightC=F SS=  1.41D+00  RLast= 5.56D-02 DXNew= 8.4853D-01 1.6689D-01
 Trust test= 1.00D+00 RLast= 5.56D-02 DXMaxT set to 5.05D-01
 ITU=  1  1  0
 Use linear search instead of GDIIS.
     Eigenvalues ---    0.00881   0.01502   0.02681   0.02681   0.02681
     Eigenvalues ---    0.02681   0.13309   0.16000   0.16000   0.16000
     Eigenvalues ---    0.16083   0.16503   0.21600   0.22000   0.30377
     Eigenvalues ---    0.36635   0.37230   0.37230   0.37230   0.37249
     Eigenvalues ---    0.37813   0.53930   0.579891000.000001000.00000
     Eigenvalues --- 1000.000001000.000001000.000001000.000001000.00000
     Eigenvalues --- 1000.000001000.000001000.00000
 RFO step:  Lambda=-1.72842619D-05 EMin= 8.80959194D-03
 Quartic linear search produced a step of  0.03762.
 Iteration  1 RMS(Cart)=  0.00223095 RMS(Int)=  0.00000430
 Iteration  2 RMS(Cart)=  0.00000412 RMS(Int)=  0.00000000
 Iteration  3 RMS(Cart)=  0.00000000 RMS(Int)=  0.00000000
 Iteration  1 RMS(Cart)=  0.00000000 RMS(Int)=  0.00000000
 ClnCor:  largest displacement from symmetrization is 1.02D-12 for atom     5.
 Variable       Old X    -DE/DX   Delta X   Delta X   Delta X     New X
                                 (Linear)    (Quad)   (Total)
    R1        2.05770   0.00018   0.00022   0.00056   0.00078   2.05848
    R2        2.75868  -0.00012  -0.00018  -0.00067  -0.00085   2.75783
    R3        2.52024  -0.00103   0.00010  -0.00209  -0.00199   2.51825
    R4        2.05770   0.00018   0.00022   0.00056   0.00078   2.05848
    R5        2.52024  -0.00103   0.00010  -0.00209  -0.00199   2.51825
    R6        2.05371   0.00007   0.00011   0.00025   0.00037   2.05408
    R7        2.05085  -0.00041   0.00003  -0.00110  -0.00108   2.04977
    R8        2.05371   0.00007   0.00011   0.00025   0.00037   2.05408
    R9        2.05085  -0.00041   0.00003  -0.00110  -0.00108   2.04977
    A1        2.02570   0.00044  -0.00044   0.00277   0.00233   2.02803
    A2        2.09228  -0.00038  -0.00047  -0.00251  -0.00298   2.08930
    A3        2.16520  -0.00006   0.00091  -0.00026   0.00065   2.16585
    A4        2.02570   0.00044  -0.00044   0.00277   0.00233   2.02803
    A5        2.16520  -0.00006   0.00091  -0.00026   0.00065   2.16585
    A6        2.09228  -0.00038  -0.00047  -0.00251  -0.00298   2.08930
    A7        2.11489   0.00054   0.00023   0.00349   0.00372   2.11861
    A8        2.12625  -0.00001   0.00051  -0.00008   0.00044   2.12669
    A9        2.04204  -0.00052  -0.00074  -0.00341  -0.00415   2.03789
   A10        2.11489   0.00054   0.00023   0.00349   0.00372   2.11861
   A11        2.12625  -0.00001   0.00051  -0.00008   0.00044   2.12669
   A12        2.04204  -0.00052  -0.00074  -0.00341  -0.00415   2.03789
    D1        3.14159   0.00000   0.00000   0.00000   0.00000   3.14159
    D2        0.00000   0.00000   0.00000   0.00000   0.00000   0.00000
    D3        0.00000   0.00000   0.00000   0.00000   0.00000   0.00000
    D4        3.14159   0.00000   0.00000   0.00000   0.00000   3.14159
    D5        3.14159  -0.00000   0.00000   0.00000   0.00000   3.14159
    D6        0.00000  -0.00000   0.00000  -0.00000   0.00000   0.00000
    D7        0.00000  -0.00000   0.00000   0.00000   0.00000   0.00000
    D8        3.14159   0.00000   0.00000  -0.00000   0.00000   3.14159
    D9        0.00000  -0.00000   0.00000   0.00000   0.00000   0.00000
   D10        3.14159   0.00000   0.00000   0.00000   0.00000   3.14159
   D11        3.14159  -0.00000   0.00000   0.00000   0.00000   3.14159
   D12        0.00000  -0.00000   0.00000  -0.00000   0.00000   0.00000
         Item               Value     Threshold  Converged?
 Maximum Force            0.001033     0.000450     NO 
 RMS     Force            0.000370     0.000300     NO 
 Maximum Displacement     0.006227     0.001800     NO 
 RMS     Displacement     0.002232     0.001200     NO 
 Predicted change in Energy=-9.000725D-06
 GradGradGradGradGradGradGradGradGradGradGradGradGradGradGradGradGradGrad

                          Input orientation:                          
 ---------------------------------------------------------------------
 Center     Atomic      Atomic             Coordinates (Angstroms)
 Number     Number       Type             X           Y           Z
 ---------------------------------------------------------------------
      1          6           0        0.615500    0.391927    0.000000
      2          1           0        0.496162    1.474670    0.000000
      3          6           0       -0.615500   -0.391927    0.000000
      4          1           0       -0.496162   -1.474670    0.000000
      5          6           0       -1.838331    0.137707    0.000000
      6          1           0       -1.989024    1.214182    0.000000
      7          1           0       -2.729768   -0.480271    0.000000
      8          6           0        1.838331   -0.137707    0.000000
      9          1           0        1.989024   -1.214182    0.000000
     10          1           0        2.729768    0.480271    0.000000
 ---------------------------------------------------------------------
                    Distance matrix (angstroms):
                    1          2          3          4          5
     1  C    0.000000
     2  H    1.089300   0.000000
     3  C    1.459380   2.172551   0.000000
     4  H    2.172551   3.111802   1.089300   0.000000
     5  C    2.466965   2.690228   1.332602   2.097899   0.000000
     6  H    2.731236   2.498801   2.113327   3.075477   1.086971
     7  H    3.457101   3.772057   2.116112   2.444959   1.084691
     8  C    1.332602   2.097899   2.466965   2.690228   3.686963
     9  H    2.113327   3.075477   2.731236   2.498801   4.059095
    10  H    2.116112   2.444959   3.457101   3.772057   4.580925
                    6          7          8          9         10
     6  H    0.000000
     7  H    1.849289   0.000000
     8  C    4.059095   4.580925   0.000000
     9  H    4.660667   4.775523   1.086971   0.000000
    10  H    4.775523   5.543389   1.084691   1.849289   0.000000
 Stoichiometry    C4H6
 Framework group  C2H[SGH(C4H6)]
 Deg. of freedom     9
 Full point group                 C2H     NOp   4
 Largest Abelian subgroup         C2H     NOp   4
 Largest concise Abelian subgroup C2      NOp   2
                         Standard orientation:                         
 ---------------------------------------------------------------------
 Center     Atomic      Atomic             Coordinates (Angstroms)
 Number     Number       Type             X           Y           Z
 ---------------------------------------------------------------------
      1          6           0       -0.326413    0.652611    0.000000
      2          1           0       -1.415690    0.645485    0.000000
      3          6           0        0.326413   -0.652611    0.000000
      4          1           0        1.415690   -0.645485    0.000000
      5          6           0       -0.326413   -1.814354    0.000000
      6          1           0       -1.412686   -1.853314    0.000000
      7          1           0        0.196412   -2.764727    0.000000
      8          6           0        0.326413    1.814354    0.000000
      9          1           0        1.412686    1.853314    0.000000
     10          1           0       -0.196412    2.764727    0.000000
 ---------------------------------------------------------------------
 Rotational constants (GHZ):          42.2878299           4.4448365           4.0220793
 Standard basis: 6-31G(d) (6D, 7F)
 There are    28 symmetry adapted cartesian basis functions of AG  symmetry.
 There are     8 symmetry adapted cartesian basis functions of BG  symmetry.
 There are     8 symmetry adapted cartesian basis functions of AU  symmetry.
 There are    28 symmetry adapted cartesian basis functions of BU  symmetry.
 There are    28 symmetry adapted basis functions of AG  symmetry.
 There are     8 symmetry adapted basis functions of BG  symmetry.
 There are     8 symmetry adapted basis functions of AU  symmetry.
 There are    28 symmetry adapted basis functions of BU  symmetry.
    72 basis functions,   136 primitive gaussians,    72 cartesian basis functions
    15 alpha electrons       15 beta electrons
       nuclear repulsion energy       103.8646961406 Hartrees.
 NAtoms=   10 NActive=   10 NUniq=    5 SFac= 4.00D+00 NAtFMM=   60 NAOKFM=F Big=F
 Integral buffers will be    131072 words long.
 Raffenetti 2 integral format.
 Two-electron integral symmetry is turned on.
 One-electron integrals computed using PRISM.
 NBasis=    72 RedAO= T EigKep=  3.55D-03  NBF=    28     8     8    28
 NBsUse=    72 1.00D-06 EigRej= -1.00D+00 NBFU=    28     8     8    28
 Initial guess from the checkpoint file:  "butadiene_scan_camnew.chk"
 B after Tr=     0.000000    0.000000    0.000000
         Rot=    1.000000   -0.000000   -0.000000   -0.000031 Ang=  -0.00 deg.
 Initial guess orbital symmetries:
       Occupied  (AG) (BU) (BU) (AG) (AG) (BU) (AG) (BU) (BU) (AG)
                 (AG) (BU) (AG) (AU) (BG)
       Virtual   (AU) (BG) (BU) (AG) (BU) (AG) (BU) (AG) (BU) (AG)
                 (BU) (BU) (AG) (AU) (BG) (AG) (BU) (BG) (AU) (BU)
                 (AG) (AG) (BU) (AG) (BU) (AG) (BU) (BU) (AG) (AG)
                 (BU) (AG) (AU) (BU) (BG) (AU) (BG) (AU) (AG) (AG)
                 (BU) (BU) (BG) (BU) (AG) (AG) (BU) (AU) (BG) (AG)
                 (BU) (BU) (AG) (AG) (BU) (AG) (BU)
 Keep R1 ints in memory in symmetry-blocked form, NReq=8821433.
 Requested convergence on RMS density matrix=1.00D-08 within 128 cycles.
 Requested convergence on MAX density matrix=1.00D-06.
 Requested convergence on             energy=1.00D-06.
 No special actions if energy rises.
 SCF Done:  E(RCAM-B3LYP) =  -155.887189710     A.U. after    8 cycles
            NFock=  8  Conv=0.34D-08     -V/T= 2.0097
 Calling FoFJK, ICntrl=      2127 FMM=F ISym2X=1 I1Cent= 0 IOpClX= 0 NMat=1 NMatS=1 NMatT=0.
 ***** Axes restored to original set *****
 -------------------------------------------------------------------
 Center     Atomic                   Forces (Hartrees/Bohr)
 Number     Number              X              Y              Z
 -------------------------------------------------------------------
      1        6          -0.000195199    0.000400270   -0.000000000
      2        1           0.000064743   -0.000091740   -0.000000000
      3        6           0.000195199   -0.000400270   -0.000000000
      4        1          -0.000064743    0.000091740   -0.000000000
      5        6           0.000011327    0.000189014   -0.000000000
      6        1          -0.000109329   -0.000034405   -0.000000000
      7        1          -0.000065277    0.000000761   -0.000000000
      8        6          -0.000011327   -0.000189014   -0.000000000
      9        1           0.000109329    0.000034405   -0.000000000
     10        1           0.000065277   -0.000000761   -0.000000000
 -------------------------------------------------------------------
 Cartesian Forces:  Max     0.000400270 RMS     0.000132710

 GradGradGradGradGradGradGradGradGradGradGradGradGradGradGradGradGradGrad
 Berny optimization.
 Using GEDIIS/GDIIS optimizer.
 FormGI is forming the generalized inverse of G from B-inverse, IUseBI=4.
 Internal  Forces:  Max     0.000211635 RMS     0.000079467
 Search for a local minimum.
 Step number   4 out of a maximum of   43 on scan point     1 out of    19
 All quantities printed in internal units (Hartrees-Bohrs-Radians)
 Mixed Optimization -- En-DIIS/RFO-DIIS
 Swapping is turned off.
 Update second derivatives using D2CorX and points    1    2    3    4
 DE= -9.54D-06 DEPred=-9.00D-06 R= 1.06D+00
 TightC=F SS=  1.41D+00  RLast= 1.02D-02 DXNew= 8.4853D-01 3.0641D-02
 Trust test= 1.06D+00 RLast= 1.02D-02 DXMaxT set to 5.05D-01
 ITU=  1  1  1  0
     Eigenvalues ---    0.00878   0.01499   0.02681   0.02681   0.02681
     Eigenvalues ---    0.02681   0.11322   0.16000   0.16000   0.16000
     Eigenvalues ---    0.16052   0.16200   0.21529   0.22000   0.30094
     Eigenvalues ---    0.36985   0.37230   0.37230   0.37230   0.37233
     Eigenvalues ---    0.38277   0.53930   0.640851000.000001000.00000
     Eigenvalues --- 1000.000001000.000001000.000001000.000001000.00000
     Eigenvalues --- 1000.000001000.000001000.00000
 En-DIIS/RFO-DIIS/Sim-DIIS IScMMF=       -3 using points:     4    3
 RFO step:  Lambda=-8.20348994D-07.
 DidBck=F Rises=F RFO-DIIS coefs:    1.15719   -0.15719
 Iteration  1 RMS(Cart)=  0.00054309 RMS(Int)=  0.00000019
 Iteration  2 RMS(Cart)=  0.00000018 RMS(Int)=  0.00000000
 Iteration  1 RMS(Cart)=  0.00000000 RMS(Int)=  0.00000000
 ClnCor:  largest displacement from symmetrization is 3.88D-13 for atom     9.
 Variable       Old X    -DE/DX   Delta X   Delta X   Delta X     New X
                                 (Linear)    (Quad)   (Total)
    R1        2.05848  -0.00010   0.00012  -0.00036  -0.00024   2.05824
    R2        2.75783   0.00011  -0.00013   0.00043   0.00030   2.75813
    R3        2.51825   0.00021  -0.00031   0.00063   0.00032   2.51857
    R4        2.05848  -0.00010   0.00012  -0.00036  -0.00024   2.05824
    R5        2.51825   0.00021  -0.00031   0.00063   0.00032   2.51857
    R6        2.05408  -0.00002   0.00006  -0.00008  -0.00003   2.05405
    R7        2.04977   0.00005  -0.00017   0.00029   0.00012   2.04989
    R8        2.05408  -0.00002   0.00006  -0.00008  -0.00003   2.05405
    R9        2.04977   0.00005  -0.00017   0.00029   0.00012   2.04989
    A1        2.02803   0.00009   0.00037   0.00022   0.00058   2.02862
    A2        2.08930  -0.00002  -0.00047   0.00016  -0.00031   2.08899
    A3        2.16585  -0.00007   0.00010  -0.00037  -0.00027   2.16558
    A4        2.02803   0.00009   0.00037   0.00022   0.00058   2.02862
    A5        2.16585  -0.00007   0.00010  -0.00037  -0.00027   2.16558
    A6        2.08930  -0.00002  -0.00047   0.00016  -0.00031   2.08899
    A7        2.11861   0.00013   0.00058   0.00041   0.00099   2.11960
    A8        2.12669  -0.00003   0.00007  -0.00021  -0.00014   2.12655
    A9        2.03789  -0.00010  -0.00065  -0.00020  -0.00085   2.03704
   A10        2.11861   0.00013   0.00058   0.00041   0.00099   2.11960
   A11        2.12669  -0.00003   0.00007  -0.00021  -0.00014   2.12655
   A12        2.03789  -0.00010  -0.00065  -0.00020  -0.00085   2.03704
    D1        3.14159  -0.00000   0.00000  -0.00000   0.00000   3.14159
    D2        0.00000  -0.00000   0.00000  -0.00000   0.00000   0.00000
    D3        0.00000  -0.00000   0.00000  -0.00000   0.00000   0.00000
    D4        3.14159  -0.00000   0.00000   0.00000   0.00000   3.14159
    D5        3.14159   0.00000   0.00000   0.00000   0.00000   3.14159
    D6        0.00000  -0.00000   0.00000  -0.00000   0.00000   0.00000
    D7        0.00000  -0.00000   0.00000   0.00000   0.00000   0.00000
    D8        3.14159   0.00000   0.00000  -0.00000   0.00000   3.14159
    D9        0.00000  -0.00000   0.00000   0.00000   0.00000   0.00000
   D10        3.14159   0.00000   0.00000  -0.00000   0.00000   3.14159
   D11        3.14159  -0.00000   0.00000   0.00000   0.00000   3.14159
   D12        0.00000   0.00000   0.00000   0.00000   0.00000   0.00000
         Item               Value     Threshold  Converged?
 Maximum Force            0.000212     0.000450     YES
 RMS     Force            0.000081     0.000300     YES
 Maximum Displacement     0.001897     0.001800     NO 
 RMS     Displacement     0.000543     0.001200     YES
 Predicted change in Energy=-4.101761D-07
 GradGradGradGradGradGradGradGradGradGradGradGradGradGradGradGradGradGrad

                          Input orientation:                          
 ---------------------------------------------------------------------
 Center     Atomic      Atomic             Coordinates (Angstroms)
 Number     Number       Type             X           Y           Z
 ---------------------------------------------------------------------
      1          6           0        0.615518    0.392045    0.000000
      2          1           0        0.496692    1.474719    0.000000
      3          6           0       -0.615518   -0.392045    0.000000
      4          1           0       -0.496692   -1.474719    0.000000
      5          6           0       -1.838425    0.137836    0.000000
      6          1           0       -1.990028    1.214169    0.000000
      7          1           0       -2.729917   -0.480176    0.000000
      8          6           0        1.838425   -0.137836    0.000000
      9          1           0        1.990028   -1.214169    0.000000
     10          1           0        2.729917    0.480176    0.000000
 ---------------------------------------------------------------------
                    Distance matrix (angstroms):
                    1          2          3          4          5
     1  C    0.000000
     2  H    1.089175   0.000000
     3  C    1.459537   2.172975   0.000000
     4  H    2.172975   3.112234   1.089175   0.000000
     5  C    2.467075   2.690730   1.332770   2.097756   0.000000
     6  H    2.732171   2.500333   2.114048   3.075739   1.086957
     7  H    3.457269   3.772615   2.116235   2.444670   1.084757
     8  C    1.332770   2.097756   2.467075   2.690730   3.687170
     9  H    2.114048   3.075739   2.732171   2.500333   4.060169
    10  H    2.116235   2.444670   3.457269   3.772615   4.581152
                    6          7          8          9         10
     6  H    0.000000
     7  H    1.848849   0.000000
     8  C    4.060169   4.581152   0.000000
     9  H    4.662367   4.776676   1.086957   0.000000
    10  H    4.776676   5.543652   1.084757   1.848849   0.000000
 Stoichiometry    C4H6
 Framework group  C2H[SGH(C4H6)]
 Deg. of freedom     9
 Full point group                 C2H     NOp   4
 Largest Abelian subgroup         C2H     NOp   4
 Largest concise Abelian subgroup C2      NOp   2
                         Standard orientation:                         
 ---------------------------------------------------------------------
 Center     Atomic      Atomic             Coordinates (Angstroms)
 Number     Number       Type             X           Y           Z
 ---------------------------------------------------------------------
      1          6           0       -0.326535    0.652639    0.000000
      2          1           0       -1.415690    0.646004    0.000000
      3          6           0        0.326535   -0.652639    0.000000
      4          1           0        1.415690   -0.646004    0.000000
      5          6           0       -0.326535   -1.814437    0.000000
      6          1           0       -1.412760   -1.854326    0.000000
      7          1           0        0.196327   -2.764864    0.000000
      8          6           0        0.326535    1.814437    0.000000
      9          1           0        1.412760    1.854326    0.000000
     10          1           0       -0.196327    2.764864    0.000000
 ---------------------------------------------------------------------
 Rotational constants (GHZ):          42.2771419           4.4440673           4.0213528
 Standard basis: 6-31G(d) (6D, 7F)
 There are    28 symmetry adapted cartesian basis functions of AG  symmetry.
 There are     8 symmetry adapted cartesian basis functions of BG  symmetry.
 There are     8 symmetry adapted cartesian basis functions of AU  symmetry.
 There are    28 symmetry adapted cartesian basis functions of BU  symmetry.
 There are    28 symmetry adapted basis functions of AG  symmetry.
 There are     8 symmetry adapted basis functions of BG  symmetry.
 There are     8 symmetry adapted basis functions of AU  symmetry.
 There are    28 symmetry adapted basis functions of BU  symmetry.
    72 basis functions,   136 primitive gaussians,    72 cartesian basis functions
    15 alpha electrons       15 beta electrons
       nuclear repulsion energy       103.8554556560 Hartrees.
 NAtoms=   10 NActive=   10 NUniq=    5 SFac= 4.00D+00 NAtFMM=   60 NAOKFM=F Big=F
 Integral buffers will be    131072 words long.
 Raffenetti 2 integral format.
 Two-electron integral symmetry is turned on.
 One-electron integrals computed using PRISM.
 NBasis=    72 RedAO= T EigKep=  3.55D-03  NBF=    28     8     8    28
 NBsUse=    72 1.00D-06 EigRej= -1.00D+00 NBFU=    28     8     8    28
 Initial guess from the checkpoint file:  "butadiene_scan_camnew.chk"
 B after Tr=    -0.000000   -0.000000    0.000000
         Rot=    1.000000    0.000000   -0.000000    0.000006 Ang=   0.00 deg.
 Initial guess orbital symmetries:
       Occupied  (AG) (BU) (BU) (AG) (AG) (BU) (AG) (BU) (BU) (AG)
                 (AG) (BU) (AG) (AU) (BG)
       Virtual   (AU) (BG) (BU) (AG) (BU) (AG) (BU) (AG) (BU) (AG)
                 (BU) (BU) (AG) (AU) (BG) (AG) (BU) (BG) (AU) (BU)
                 (AG) (AG) (BU) (AG) (BU) (AG) (BU) (BU) (AG) (AG)
                 (BU) (AG) (AU) (BU) (BG) (AU) (BG) (AU) (AG) (AG)
                 (BU) (BU) (BG) (BU) (AG) (AG) (BU) (AU) (BG) (AG)
                 (BU) (BU) (AG) (AG) (BU) (AG) (BU)
 Keep R1 ints in memory in symmetry-blocked form, NReq=8821433.
 Requested convergence on RMS density matrix=1.00D-08 within 128 cycles.
 Requested convergence on MAX density matrix=1.00D-06.
 Requested convergence on             energy=1.00D-06.
 No special actions if energy rises.
 SCF Done:  E(RCAM-B3LYP) =  -155.887190153     A.U. after    7 cycles
            NFock=  7  Conv=0.19D-08     -V/T= 2.0097
 Calling FoFJK, ICntrl=      2127 FMM=F ISym2X=1 I1Cent= 0 IOpClX= 0 NMat=1 NMatS=1 NMatT=0.
 ***** Axes restored to original set *****
 -------------------------------------------------------------------
 Center     Atomic                   Forces (Hartrees/Bohr)
 Number     Number              X              Y              Z
 -------------------------------------------------------------------
      1        6          -0.000025835    0.000052497   -0.000000000
      2        1           0.000005622   -0.000033016   -0.000000000
      3        6           0.000025835   -0.000052497   -0.000000000
      4        1          -0.000005622    0.000033016   -0.000000000
      5        6           0.000030088    0.000041784   -0.000000000
      6        1          -0.000005567   -0.000014623   -0.000000000
      7        1          -0.000020105   -0.000013772   -0.000000000
      8        6          -0.000030088   -0.000041784   -0.000000000
      9        1           0.000005567    0.000014623   -0.000000000
     10        1           0.000020105    0.000013772   -0.000000000
 -------------------------------------------------------------------
 Cartesian Forces:  Max     0.000052497 RMS     0.000023144

 GradGradGradGradGradGradGradGradGradGradGradGradGradGradGradGradGradGrad
 Berny optimization.
 Using GEDIIS/GDIIS optimizer.
 FormGI is forming the generalized inverse of G from B-inverse, IUseBI=4.
 Internal  Forces:  Max     0.000033452 RMS     0.000012476
 Search for a local minimum.
 Step number   5 out of a maximum of   43 on scan point     1 out of    19
 All quantities printed in internal units (Hartrees-Bohrs-Radians)
 Mixed Optimization -- En-DIIS/RFO-DIIS
 Swapping is turned off.
 Update second derivatives using D2CorX and points    1    2    3    4    5
 DE= -4.43D-07 DEPred=-4.10D-07 R= 1.08D+00
 Trust test= 1.08D+00 RLast= 2.22D-03 DXMaxT set to 5.05D-01
 ITU=  0  1  1  1  0
     Eigenvalues ---    0.00878   0.01498   0.02681   0.02681   0.02681
     Eigenvalues ---    0.02681   0.11003   0.15829   0.16000   0.16000
     Eigenvalues ---    0.16000   0.16339   0.20458   0.22000   0.30917
     Eigenvalues ---    0.36322   0.37230   0.37230   0.37230   0.37279
     Eigenvalues ---    0.38693   0.53930   0.646551000.000001000.00000
     Eigenvalues --- 1000.000001000.000001000.000001000.000001000.00000
     Eigenvalues --- 1000.000001000.000001000.00000
 En-DIIS/RFO-DIIS/Sim-DIIS IScMMF=       -3 using points:     5    4    3
 RFO step:  Lambda=-1.57687388D-08.
 DidBck=F Rises=F RFO-DIIS coefs:    1.12559   -0.13560    0.01001
 Iteration  1 RMS(Cart)=  0.00003323 RMS(Int)=  0.00000000
 Iteration  2 RMS(Cart)=  0.00000000 RMS(Int)=  0.00000000
 Iteration  1 RMS(Cart)=  0.00000000 RMS(Int)=  0.00000000
 ClnCor:  largest displacement from symmetrization is 2.48D-13 for atom     9.
 Variable       Old X    -DE/DX   Delta X   Delta X   Delta X     New X
                                 (Linear)    (Quad)   (Total)
    R1        2.05824  -0.00003  -0.00004  -0.00006  -0.00010   2.05814
    R2        2.75813  -0.00002   0.00005  -0.00010  -0.00005   2.75807
    R3        2.51857   0.00000   0.00006  -0.00005   0.00001   2.51858
    R4        2.05824  -0.00003  -0.00004  -0.00006  -0.00010   2.05814
    R5        2.51857   0.00000   0.00006  -0.00005   0.00001   2.51858
    R6        2.05405  -0.00001  -0.00001  -0.00004  -0.00004   2.05401
    R7        2.04989   0.00002   0.00003   0.00004   0.00007   2.04996
    R8        2.05405  -0.00001  -0.00001  -0.00004  -0.00004   2.05401
    R9        2.04989   0.00002   0.00003   0.00004   0.00007   2.04996
    A1        2.02862   0.00001   0.00005   0.00002   0.00007   2.02868
    A2        2.08899   0.00001  -0.00001   0.00002   0.00001   2.08900
    A3        2.16558  -0.00002  -0.00004  -0.00004  -0.00008   2.16550
    A4        2.02862   0.00001   0.00005   0.00002   0.00007   2.02868
    A5        2.16558  -0.00002  -0.00004  -0.00004  -0.00008   2.16550
    A6        2.08899   0.00001  -0.00001   0.00002   0.00001   2.08900
    A7        2.11960   0.00001   0.00009   0.00000   0.00009   2.11969
    A8        2.12655  -0.00000  -0.00002  -0.00001  -0.00003   2.12651
    A9        2.03704  -0.00001  -0.00007   0.00001  -0.00006   2.03698
   A10        2.11960   0.00001   0.00009   0.00000   0.00009   2.11969
   A11        2.12655  -0.00000  -0.00002  -0.00001  -0.00003   2.12651
   A12        2.03704  -0.00001  -0.00007   0.00001  -0.00006   2.03698
    D1        3.14159   0.00000   0.00000   0.00000   0.00000   3.14159
    D2        0.00000   0.00000   0.00000   0.00000   0.00000   0.00000
    D3        0.00000   0.00000   0.00000   0.00000   0.00000   0.00000
    D4        3.14159   0.00000   0.00000   0.00000   0.00000   3.14159
    D5        3.14159   0.00000   0.00000  -0.00000   0.00000   3.14159
    D6        0.00000  -0.00000   0.00000  -0.00000   0.00000   0.00000
    D7        0.00000   0.00000   0.00000  -0.00000   0.00000   0.00000
    D8        3.14159  -0.00000   0.00000  -0.00000   0.00000   3.14159
    D9        0.00000   0.00000   0.00000   0.00000   0.00000   0.00000
   D10        3.14159  -0.00000   0.00000   0.00000   0.00000   3.14159
   D11        3.14159   0.00000   0.00000   0.00000   0.00000   3.14159
   D12        0.00000  -0.00000   0.00000  -0.00000   0.00000   0.00000
         Item               Value     Threshold  Converged?
 Maximum Force            0.000033     0.000450     YES
 RMS     Force            0.000013     0.000300     YES
 Maximum Displacement     0.000082     0.001800     YES
 RMS     Displacement     0.000033     0.001200     YES
 Predicted change in Energy=-9.250025D-09
 Optimization completed.
    -- Stationary point found.
                           ----------------------------
                           !   Optimized Parameters   !
                           ! (Angstroms and Degrees)  !
 --------------------------                            --------------------------
 ! Name  Definition              Value          Derivative Info.                !
 --------------------------------------------------------------------------------
 ! R1    R(1,2)                  1.0892         -DE/DX =    0.0                 !
 ! R2    R(1,3)                  1.4595         -DE/DX =    0.0                 !
 ! R3    R(1,8)                  1.3328         -DE/DX =    0.0                 !
 ! R4    R(3,4)                  1.0892         -DE/DX =    0.0                 !
 ! R5    R(3,5)                  1.3328         -DE/DX =    0.0                 !
 ! R6    R(5,6)                  1.087          -DE/DX =    0.0                 !
 ! R7    R(5,7)                  1.0848         -DE/DX =    0.0                 !
 ! R8    R(8,9)                  1.087          -DE/DX =    0.0                 !
 ! R9    R(8,10)                 1.0848         -DE/DX =    0.0                 !
 ! A1    A(2,1,3)              116.2312         -DE/DX =    0.0                 !
 ! A2    A(2,1,8)              119.6902         -DE/DX =    0.0                 !
 ! A3    A(3,1,8)              124.0786         -DE/DX =    0.0                 !
 ! A4    A(1,3,4)              116.2312         -DE/DX =    0.0                 !
 ! A5    A(1,3,5)              124.0786         -DE/DX =    0.0                 !
 ! A6    A(4,3,5)              119.6902         -DE/DX =    0.0                 !
 ! A7    A(3,5,6)              121.4444         -DE/DX =    0.0                 !
 ! A8    A(3,5,7)              121.8421         -DE/DX =    0.0                 !
 ! A9    A(6,5,7)              116.7135         -DE/DX =    0.0                 !
 ! A10   A(1,8,9)              121.4444         -DE/DX =    0.0                 !
 ! A11   A(1,8,10)             121.8421         -DE/DX =    0.0                 !
 ! A12   A(9,8,10)             116.7135         -DE/DX =    0.0                 !
 ! D1    D(2,1,3,4)            180.0            -DE/DX =    0.0                 !
 ! D2    D(2,1,3,5)              0.0            -DE/DX =    0.0                 !
 ! D3    D(8,1,3,4)              0.0            -DE/DX =    0.0                 !
 ! D4    D(8,1,3,5)            180.0            -DE/DX =    0.0                 !
 ! D5    D(2,1,8,9)            180.0            -DE/DX =    0.0                 !
 ! D6    D(2,1,8,10)             0.0            -DE/DX =    0.0                 !
 ! D7    D(3,1,8,9)              0.0            -DE/DX =    0.0                 !
 ! D8    D(3,1,8,10)           180.0            -DE/DX =    0.0                 !
 ! D9    D(1,3,5,6)              0.0            -DE/DX =    0.0                 !
 ! D10   D(1,3,5,7)            180.0            -DE/DX =    0.0                 !
 ! D11   D(4,3,5,6)            180.0            -DE/DX =    0.0                 !
 ! D12   D(4,3,5,7)              0.0            -DE/DX =    0.0                 !
 --------------------------------------------------------------------------------
 Iteration  1 RMS(Cart)=  0.03217704 RMS(Int)=  0.02165892
 Iteration  2 RMS(Cart)=  0.00093916 RMS(Int)=  0.02165223
 Iteration  3 RMS(Cart)=  0.00000665 RMS(Int)=  0.02165223
 Iteration  4 RMS(Cart)=  0.00000023 RMS(Int)=  0.02165223
 Iteration  1 RMS(Cart)=  0.01636097 RMS(Int)=  0.01099104
 Iteration  2 RMS(Cart)=  0.00832247 RMS(Int)=  0.01228535
 Iteration  3 RMS(Cart)=  0.00422800 RMS(Int)=  0.01375989
 Iteration  4 RMS(Cart)=  0.00214599 RMS(Int)=  0.01465503
 Iteration  5 RMS(Cart)=  0.00108867 RMS(Int)=  0.01513939
 Iteration  6 RMS(Cart)=  0.00055213 RMS(Int)=  0.01539198
 Iteration  7 RMS(Cart)=  0.00027998 RMS(Int)=  0.01552175
 Iteration  8 RMS(Cart)=  0.00014196 RMS(Int)=  0.01558797
 Iteration  9 RMS(Cart)=  0.00007198 RMS(Int)=  0.01562165
 Iteration 10 RMS(Cart)=  0.00003649 RMS(Int)=  0.01563875
 Iteration 11 RMS(Cart)=  0.00001850 RMS(Int)=  0.01564743
 Iteration 12 RMS(Cart)=  0.00000938 RMS(Int)=  0.01565183
 Iteration 13 RMS(Cart)=  0.00000476 RMS(Int)=  0.01565407
 Iteration 14 RMS(Cart)=  0.00000241 RMS(Int)=  0.01565520
 Iteration 15 RMS(Cart)=  0.00000122 RMS(Int)=  0.01565577
 Iteration 16 RMS(Cart)=  0.00000062 RMS(Int)=  0.01565606
 GradGradGradGradGradGradGradGradGradGradGradGradGradGradGradGradGradGrad

                          Input orientation:                          
 ---------------------------------------------------------------------
 Center     Atomic      Atomic             Coordinates (Angstroms)
 Number     Number       Type             X           Y           Z
 ---------------------------------------------------------------------
      1          6           0        0.615783    0.391603    0.073988
      2          1           0        0.499310    1.474477    0.075305
      3          6           0       -0.615783   -0.391603    0.073988
      4          1           0       -0.499310   -1.474477    0.075305
      5          6           0       -1.835759    0.137029   -0.022313
      6          1           0       -1.985938    1.212666   -0.067597
      7          1           0       -2.726270   -0.481445   -0.059383
      8          6           0        1.835759   -0.137029   -0.022313
      9          1           0        1.985938   -1.212666   -0.067597
[...]
           R3           1.33277   1.33273   1.33250   1.33207   1.33151
           R4           1.08917   1.08915   1.08918   1.08924   1.08929
           R5           1.33277   1.33273   1.33250   1.33207   1.33151
           R6           1.08696   1.08695   1.08696   1.08701   1.08700
           R7           1.08476   1.08480   1.08483   1.08495   1.08502
           R8           1.08696   1.08695   1.08696   1.08701   1.08700
           R9           1.08476   1.08480   1.08483   1.08495   1.08502
           A1         116.23121 116.24679 116.27879 116.32100 116.43310
           A2         119.69022 119.64805 119.55381 119.43043 119.23456
           A3         124.07856 124.06504 124.01673 123.95466 123.92790
           A4         116.23121 116.24679 116.27879 116.32100 116.43310
           A5         124.07856 124.06504 124.01673 123.95466 123.92790
           A6         119.69022 119.64805 119.55381 119.43043 119.23456
           A7         121.44438 121.45419 121.48931 121.53640 121.59665
           A8         121.84208 121.82727 121.78900 121.74969 121.65465
           A9         116.71354 116.71838 116.71968 116.71049 116.74342
           A10        121.44438 121.45419 121.48931 121.53640 121.59665
           A11        121.84208 121.82727 121.78900 121.74969 121.65465
           A12        116.71354 116.71838 116.71968 116.71049 116.74342
           D1         180.00000-174.63803-168.98973-162.55970-154.75105
           D2           0.00000   7.68091  15.50519  23.72021  32.62452
           D3           0.00000   7.68091  15.50519  23.72021  32.62452
           D4         180.00000-170.00014-159.99989-149.99989-139.99992
           D5         180.00000-179.37356-178.83838-178.31602-177.96048
           D6           0.00000   0.77692   1.69394   2.37873   2.90248
           D7           0.00000  -1.76677  -3.47186  -4.77963  -5.53010
           D8         180.00000 178.38371 177.06046 175.91512 175.33286
           D9           0.00000  -1.76677  -3.47186  -4.77963  -5.53010
           D10        180.00000 178.38371 177.06046 175.91512 175.33286
           D11        180.00000-179.37356-178.83838-178.31602-177.96048
           D12          0.00000   0.77692   1.69394   2.37873   2.90248
                           6         7         8         9        10
     Eigenvalues --    -0.88038  -0.87837  -0.87700  -0.87659  -0.87708
           R1           1.08932   1.08943   1.08974   1.09023   1.09061
           R2           1.47386   1.47945   1.48389   1.48498   1.48320
           R3           1.33066   1.32971   1.32878   1.32827   1.32831
           R4           1.08932   1.08943   1.08974   1.09023   1.09061
           R5           1.33066   1.32971   1.32878   1.32827   1.32831
           R6           1.08705   1.08687   1.08678   1.08653   1.08635
           R7           1.08520   1.08541   1.08561   1.08577   1.08582
           R8           1.08705   1.08687   1.08678   1.08653   1.08635
           R9           1.08520   1.08541   1.08561   1.08577   1.08582
           A1         116.56645 116.72556 116.71765 116.49135 116.23255
           A2         119.13329 119.03040 119.07258 119.09537 119.13046
           A3         123.89720 124.00305 124.16641 124.40373 124.54276
           A4         116.56645 116.72556 116.71765 116.49135 116.23255
           A5         123.89720 124.00305 124.16641 124.40373 124.54276
           A6         119.13329 119.03040 119.07258 119.09537 119.13046
           A7         121.65737 121.73485 121.70619 121.64528 121.53164
           A8         121.63693 121.50407 121.52694 121.51052 121.54778
           A9         116.69999 116.75756 116.76653 116.84340 116.91725
           A10        121.65737 121.73485 121.70619 121.64528 121.53164
           A11        121.63693 121.50407 121.52694 121.51052 121.54778
           A12        116.69999 116.75756 116.76653 116.84340 116.91725
           D1        -144.73902-131.41885-114.84817 -97.72380 -82.85474
           D2          42.63055  54.29063  67.57592  81.13814  93.57268
           D3          42.63055  54.29063  67.57592  81.13814  93.57268
           D4        -129.99989-119.99989-109.99998 -99.99993 -89.99990
           D5        -177.82725-178.15070-179.04770 179.75596 178.61705
           D6           3.07132   2.55416   1.17176  -0.58026  -2.06729
           D7          -5.37439  -3.98341  -1.52516   0.92162   2.28584
           D8         175.52418 176.72145 178.69430-179.41460-178.39849
           D9          -5.37439  -3.98341  -1.52516   0.92162   2.28584
           D10        175.52418 176.72145 178.69430-179.41460-178.39849
           D11       -177.82725-178.15070-179.04770 179.75596 178.61705
           D12          3.07132   2.55416   1.17176  -0.58026  -2.06729
                          11        12        13        14        15
     Eigenvalues --    -0.87813  -0.87944  -0.88071  -0.88171  -0.88228
           R1           1.09070   1.09052   1.09019   1.08991   1.08938
           R2           1.48009   1.47677   1.47383   1.47148   1.47044
           R3           1.32875   1.32946   1.33026   1.33103   1.33168
           R4           1.09070   1.09052   1.09019   1.08991   1.08938
           R5           1.32875   1.32946   1.33026   1.33103   1.33168
           R6           1.08623   1.08618   1.08619   1.08621   1.08624
           R7           1.08580   1.08573   1.08562   1.08550   1.08528
           R8           1.08623   1.08618   1.08619   1.08621   1.08624
           R9           1.08580   1.08573   1.08562   1.08550   1.08528
           A1         116.10696 116.13450 116.22735 116.21706 116.14091
           A2         119.16945 119.22555 119.24554 119.22487 119.04157
           A3         124.55956 124.46721 124.39388 124.48187 124.79009
           A4         116.10696 116.13450 116.22735 116.21706 116.14091
           A5         124.55956 124.46721 124.39388 124.48187 124.79009
           A6         119.16945 119.22555 119.24554 119.22487 119.04157
           A7         121.41569 121.31228 121.25396 121.25615 121.42462
           A8         121.58608 121.63725 121.66966 121.67328 121.60209
           A9         116.99419 117.04772 117.07562 117.07053 116.97132
           A10        121.41569 121.31228 121.25396 121.25615 121.42462
           A11        121.58608 121.63725 121.66966 121.67328 121.60209
           A12        116.99419 117.04772 117.07562 117.07053 116.97132
           D1         -70.57914 -60.33877 -51.51649 -43.58047 -36.13904
           D2         104.71040 114.83064 124.24173 133.20970 141.93046
           D3         104.71040 114.83064 124.24173 133.20970 141.93046
           D4         -80.00005 -69.99994 -60.00006 -50.00013 -40.00003
           D5         177.70959 177.07055 176.66720 176.48918 176.57032
           D6          -3.04347  -3.55095  -3.65903  -3.42640  -2.90359
           D7           2.55410   2.04018   1.02838  -0.21109  -1.44739
           D8        -178.19896-178.58132-179.29785 179.87333 179.07869
           D9           2.55410   2.04018   1.02838  -0.21109  -1.44739
           D10       -178.19896-178.58132-179.29785 179.87333 179.07869
           D11        177.70959 177.07055 176.66720 176.48918 176.57032
           D12         -3.04347  -3.55095  -3.65903  -3.42640  -2.90359
                          16        17        18        19
     Eigenvalues --    -0.88236  -0.88209  -0.88173  -0.88157
           R1           1.08901   1.08863   1.08833   1.08821
           R2           1.47022   1.47082   1.47167   1.47205
           R3           1.33214   1.33241   1.33254   1.33259
           R4           1.08901   1.08863   1.08833   1.08821
           R5           1.33214   1.33241   1.33254   1.33259
           R6           1.08627   1.08626   1.08624   1.08623
           R7           1.08509   1.08494   1.08484   1.08481
           R8           1.08627   1.08626   1.08624   1.08623
           R9           1.08509   1.08494   1.08484   1.08481
           A1         115.86764 115.51917 115.21682 115.09437
           A2         118.79334 118.48715 118.23270 118.13132
           A3         125.33491 125.99366 126.54997 126.77431
           A4         115.86764 115.51917 115.21682 115.09437
           A5         125.33491 125.99366 126.54997 126.77431
           A6         118.79334 118.48715 118.23270 118.13132
           A7         121.67875 122.00045 122.28915 122.41010
           A8         121.49520 121.35508 121.23154 121.17980
           A9         116.82069 116.63815 116.47644 116.41011
           A10        121.67875 122.00045 122.28915 122.41010
           A11        121.49520 121.35508 121.23154 121.17980
           A12        116.82069 116.63815 116.47644 116.41011
           D1         -28.49995 -20.11576 -10.53396   0.02070
           D2         150.75007 159.94219 169.73309-179.98957
           D3         150.75007 159.94219 169.73309-179.98957
           D4         -29.99990 -19.99986  -9.99986   0.00017
           D5         176.93140 177.62752 178.66955 179.95692
           D6          -2.20019  -1.42682  -0.69235  -0.02226
           D7          -2.29856  -2.43198  -1.60468  -0.03254
           D8         178.56984 178.51368 179.03342 179.98828
           D9          -2.29856  -2.43198  -1.60468  -0.03254
           D10        178.56984 178.51368 179.03342 179.98828
           D11        176.93140 177.62752 178.66955 179.95692
           D12         -2.20019  -1.42682  -0.69235  -0.02226
 GradGradGradGradGradGradGradGradGradGradGradGradGradGradGradGradGradGrad

                          Input orientation:                          
 ---------------------------------------------------------------------
 Center     Atomic      Atomic             Coordinates (Angstroms)
 Number     Number       Type             X           Y           Z
 ---------------------------------------------------------------------
      1          6           0        0.723958    0.132736    0.625256
      2          1           0        1.177944    0.215792    1.610752
      3          6           0       -0.723958   -0.132736    0.625256
      4          1           0       -1.177944   -0.215792    1.610752
      5          6           0       -1.508649   -0.276608   -0.442144
      6          1           0       -1.129068   -0.206485   -1.457474
      7          1           0       -2.570551   -0.471498   -0.336389
      8          6           0        1.508649    0.276608   -0.442144
      9          1           0        1.129068    0.206485   -1.457474
     10          1           0        2.570551    0.471498   -0.336389
 ---------------------------------------------------------------------
                    Distance matrix (angstroms):
                    1          2          3          4          5
     1  C    0.000000
     2  H    1.088211   0.000000
     3  C    1.472051   2.170231   0.000000
     4  H    2.170231   2.395094   1.088211   0.000000
     5  C    2.508274   3.416815   1.332586   2.080252   0.000000
     6  H    2.808298   3.861947   2.123045   3.068629   1.086229
     7  H    3.484774   4.279596   2.109367   2.407508   1.084805
     8  C    1.332586   2.080252   2.508274   3.416815   3.067594
     9  H    2.123045   3.068629   2.808298   3.861947   2.867372
    10  H    2.109367   2.407508   3.484774   4.279596   4.148580
                    6          7          8          9         10
     6  H    0.000000
     7  H    1.845247   0.000000
     8  C    2.867372   4.148580   0.000000
     9  H    2.295587   3.924751   1.086229   0.000000
    10  H    3.924751   5.226870   1.084805   1.845247   0.000000
 Stoichiometry    C4H6
 Framework group  C2[X(C4H6)]
 Deg. of freedom    13
 Full point group                 C2      NOp   2
 Largest Abelian subgroup         C2      NOp   2
 Largest concise Abelian subgroup C2      NOp   2
                         Standard orientation:                         
 ---------------------------------------------------------------------
 Center     Atomic      Atomic             Coordinates (Angstroms)
 Number     Number       Type             X           Y           Z
 ---------------------------------------------------------------------
      1          6           0       -0.000000   -0.736025    0.564219
      2          1           0       -0.000179   -1.197547    1.549714
      3          6           0        0.000000    0.736025    0.564219
      4          1           0        0.000179    1.197547    1.549714
      5          6           0       -0.000000    1.533797   -0.503182
      6          1           0        0.000519    1.147793   -1.518511
      7          1           0       -0.000189    2.613435   -0.397427
      8          6           0        0.000000   -1.533797   -0.503182
      9          1           0       -0.000519   -1.147793   -1.518511
     10          1           0        0.000189   -2.613435   -0.397427
 ---------------------------------------------------------------------
 Rotational constants (GHZ):          21.4926009           5.6927732           4.5006739

 **********************************************************************

            Population analysis using the SCF Density.

 **********************************************************************

 Orbital symmetries:
       Occupied  (A) (B) (B) (A) (A) (B) (A) (B) (A) (A) (B) (B)
                 (A) (B) (A)
       Virtual   (B) (A) (A) (A) (B) (B) (B) (A) (A) (B) (B) (A)
                 (B) (A) (B) (A) (A) (B) (A) (A) (B) (A) (B) (B)
                 (A) (A) (B) (B) (B) (A) (B) (A) (B) (B) (B) (A)
                 (A) (B) (A) (A) (A) (B) (B) (A) (A) (B) (B) (B)
                 (A) (A) (A) (B) (B) (A) (B) (A) (B)
 The electronic state is 1-A.
 Alpha  occ. eigenvalues --  -10.26315 -10.26285 -10.25374 -10.25373  -0.88153
 Alpha  occ. eigenvalues --   -0.80457  -0.69208  -0.59679  -0.55908  -0.50398
 Alpha  occ. eigenvalues --   -0.48136  -0.42182  -0.40816  -0.38205  -0.28338
 Alpha virt. eigenvalues --    0.02274   0.15295   0.15697   0.16586   0.20679
 Alpha virt. eigenvalues --    0.24778   0.25872   0.26357   0.36323   0.39791
 Alpha virt. eigenvalues --    0.49454   0.52313   0.58660   0.59424   0.65073
 Alpha virt. eigenvalues --    0.65673   0.68744   0.70355   0.74786   0.75596
 Alpha virt. eigenvalues --    0.76062   0.89971   0.92670   0.95024   0.96086
 Alpha virt. eigenvalues --    1.00326   1.02420   1.05642   1.12437   1.14415
 Alpha virt. eigenvalues --    1.25174   1.30936   1.41470   1.52828   1.55263
 Alpha virt. eigenvalues --    1.59613   1.72807   1.82859   1.85063   1.95824
 Alpha virt. eigenvalues --    2.04143   2.08549   2.18452   2.24358   2.30213
 Alpha virt. eigenvalues --    2.33518   2.36216   2.62277   2.63037   2.63528
 Alpha virt. eigenvalues --    2.70515   2.94726   3.16105   4.14277   4.22337
 Alpha virt. eigenvalues --    4.27147   4.55440
          Condensed to atoms (all electrons):
               1          2          3          4          5          6
     1  C    4.752127   0.370548   0.440715  -0.042864  -0.039808  -0.012067
     2  H    0.370548   0.598142  -0.042864  -0.006313   0.006053   0.000016
     3  C    0.440715  -0.042864   4.752127   0.370548   0.662959  -0.031203
     4  H   -0.042864  -0.006313   0.370548   0.598142  -0.055187   0.005603
     5  C   -0.039808   0.006053   0.662959  -0.055187   5.039905   0.369635
     6  H   -0.012067   0.000016  -0.031203   0.005603   0.369635   0.558001
     7  H    0.004129  -0.000151  -0.021237  -0.007749   0.369985  -0.040502
     8  C    0.662959  -0.055187  -0.039808   0.006053  -0.020643   0.004966
     9  H   -0.031203   0.005603  -0.012067   0.000016   0.004966   0.003139
    10  H   -0.021237  -0.007749   0.004129  -0.000151   0.000090  -0.000086
               7          8          9         10
     1  C    0.004129   0.662959  -0.031203  -0.021237
     2  H   -0.000151  -0.055187   0.005603  -0.007749
     3  C   -0.021237  -0.039808  -0.012067   0.004129
     4  H   -0.007749   0.006053   0.000016  -0.000151
     5  C    0.369985  -0.020643   0.004966   0.000090
     6  H   -0.040502   0.004966   0.003139  -0.000086
     7  H    0.548663   0.000090  -0.000086   0.000001
     8  C    0.000090   5.039905   0.369635   0.369985
     9  H   -0.000086   0.369635   0.558001  -0.040502
    10  H    0.000001   0.369985  -0.040502   0.548663
 Mulliken charges:
               1
     1  C   -0.083299
     2  H    0.131901
     3  C   -0.083299
     4  H    0.131901
     5  C   -0.337955
     6  H    0.142497
     7  H    0.146856
     8  C   -0.337955
     9  H    0.142497
    10  H    0.146856
 Sum of Mulliken charges =  -0.00000
 Mulliken charges with hydrogens summed into heavy atoms:
               1
     1  C    0.048601
     3  C    0.048601
     5  C   -0.048601
     8  C   -0.048601
 Electronic spatial extent (au):  <R**2>=            306.0949
 Charge=             -0.0000 electrons
 Dipole moment (field-independent basis, Debye):
    X=             -0.0000    Y=             -0.0000    Z=              0.0865  Tot=              0.0865
 Quadrupole moment (field-independent basis, Debye-Ang):
   XX=            -27.9580   YY=            -22.7586   ZZ=            -22.4439
   XY=              0.0002   XZ=              0.0000   YZ=              0.0000
 Traceless Quadrupole moment (field-independent basis, Debye-Ang):
   XX=             -3.5712   YY=              1.6283   ZZ=              1.9429
   XY=              0.0002   XZ=              0.0000   YZ=              0.0000
 Octapole moment (field-independent basis, Debye-Ang**2):
  XXX=              0.0000  YYY=             -0.0000  ZZZ=              0.3773  XYY=             -0.0000
  XXY=              0.0000  XXZ=              0.2109  XZZ=              0.0000  YZZ=              0.0000
  YYZ=              0.0974  XYZ=             -0.0005
 Hexadecapole moment (field-independent basis, Debye-Ang**3):
 XXXX=            -29.0088 YYYY=           -261.0855 ZZZZ=            -95.3320 XXXY=             -0.0012
 XXXZ=             -0.0000 YYYX=             -0.0068 YYYZ=              0.0000 ZZZX=              0.0000
 ZZZY=              0.0000 XXYY=            -58.6543 XXZZ=            -23.0611 YYZZ=            -63.6118
 XXYZ=             -0.0000 YYXZ=              0.0000 ZZXY=              0.0030
 N-N= 1.048374228492D+02 E-N=-5.700693781538D+02  KE= 1.543787465316D+02
 Symmetry A    KE= 7.838699684541D+01
 Symmetry B    KE= 7.599174968624D+01
 1\1\GINC-GADOLINIO\Scan\RCAM-B3LYP\6-31G(d)\C4H6\MASTER3\26-Apr-2019\0
 \\# opt=modredundant cam-b3lyp/6-31G* geom=connectivity\\Title Card Re
 quired\\0,1\C,0.7239575802,0.1327356058,0.6252563362\H,1.1779442809,0.
 2157918481,1.6107516321\C,-0.7239575753,-0.132735604,0.6252563341\H,-1
 .1779442795,-0.2157918436,1.6107516287\C,-1.5086488718,-0.276608135,-0
 .4421444508\H,-1.1290677308,-0.2064849562,-1.4574741977\H,-2.570550992
 2,-0.4714977841,-0.3363893163\C,1.5086488803,0.2766081338,-0.442144446
 4\H,1.1290677428,0.2064849521,-1.4574741944\H,2.5705510004,0.471497783
 2,-0.3363893088\\Version=EM64L-G16RevB.01\State=1-A\HF=-155.8871902,-1
 55.8868763,-155.8859502,-155.8844655,-155.8825365,-155.8803818,-155.87
 83719,-155.876998,-155.8765923,-155.8770758,-155.8781334,-155.87944,-1
 55.8807136,-155.8817143,-155.8822751,-155.8823563,-155.8820885,-155.88
 17345,-155.8815747\RMSD=1.945e-09,9.470e-09,7.188e-09,3.831e-09,6.560e
 -09,7.195e-09,9.446e-09,9.703e-09,6.930e-09,7.326e-09,5.331e-09,9.929e
 -09,2.582e-09,3.632e-09,9.075e-09,4.281e-09,4.695e-09,7.878e-09,2.416e
 -09\PG=C02 [X(C4H6)]\\@


 Ideas are like rabbits. You get a couple and learn
 how to handle them, and pretty soon you have a dozen.
                                    -- John Steinbeck
 Job cpu time:       0 days  0 hours 17 minutes 37.4 seconds.
 Elapsed time:       0 days  0 hours 19 minutes 58.3 seconds.
 File lengths (MBytes):  RWF=     10 Int=      0 D2E=      0 Chk=      3 Scr=      1
 Normal termination of Gaussian 16 at Fri Apr 26 10:46:39 2019.
