 Entering Gaussian System, Link 0=g16
 Initial command:
 /usr/local/gaussian/gaussian16.b1-legacy/g16/l1.exe "/scratch/sonatak/Gau-58162.inp" -scrdir="/scratch/sonatak/"
 Entering Link 1 = /usr/local/gaussian/gaussian16.b1-legacy/g16/l1.exe PID=     58163.
  
 Copyright (c) 1988-2017, Gaussian, Inc.  All Rights Reserved.
  
 This is part of the Gaussian(R) 16 program.  It is based on
 the Gaussian(R) 09 system (copyright 2009, Gaussian, Inc.),
 the Gaussian(R) 03 system (copyright 2003, Gaussian, Inc.),
 the Gaussian(R) 98 system (copyright 1998, Gaussian, Inc.),
 the Gaussian(R) 94 system (copyright 1995, Gaussian, Inc.),
 the Gaussian 92(TM) system (copyright 1992, Gaussian, Inc.),
 the Gaussian 90(TM) system (copyright 1990, Gaussian, Inc.),
 the Gaussian 88(TM) system (copyright 1988, Gaussian, Inc.),
 the Gaussian 86(TM) system (copyright 1986, Carnegie Mellon
 University), and the Gaussian 82(TM) system (copyright 1983,
 Carnegie Mellon University). Gaussian is a federally registered
 trademark of Gaussian, Inc.
  
 This software contains proprietary and confidential information,
 including trade secrets, belonging to Gaussian, Inc.
  
 This software is provided under written license and may be
 used, copied, transmitted, or stored only in accord with that
 written license.
  
 The following legend is applicable only to US Government
 contracts under FAR:
  
                    RESTRICTED RIGHTS LEGEND
  
 Use, reproduction and disclosure by the US Government is
 subject to restrictions as set forth in subparagraphs (a)
 and (c) of the Commercial Computer Software - Restricted
 Rights clause in FAR 52.227-19.
  
 Gaussian, Inc.
 340 Quinnipiac St., Bldg. 40, Wallingford CT 06492
  
  
 ---------------------------------------------------------------
 Warning -- This program may not be used in any manner that
 competes with the business of Gaussian, Inc. or will provide
 assistance to any competitor of Gaussian, Inc.  The licensee
 of this program is prohibited from giving any competitor of
 Gaussian, Inc. access to this program.  By using this program,
 the user acknowledges that Gaussian, Inc. is engaged in the
 business of creating and licensing software in the field of
 computational chemistry and represents and warrants to the
 licensee that it is not a competitor of Gaussian, Inc. and that
 it will not use this program in any manner prohibited above.
 ---------------------------------------------------------------
  

 Cite this work as:
 Gaussian 16, Revision B.01,
 M. J. Frisch, G. W. Trucks, H. B. Schlegel, G. E. Scuseria, 
 M. A. Robb, J. R. Cheeseman, G. Scalmani, V. Barone, 
 G. A. Petersson, H. Nakatsuji, X. Li, M. Caricato, A. V. Marenich, 
 J. Bloino, B. G. Janesko, R. Gomperts, B. Mennucci, H. P. Hratchian, 
 J. V. Ortiz, A. F. Izmaylov, J. L. Sonnenberg, D. Williams-Young, 
 F. Ding, F. Lipparini, F. Egidi, J. Goings, B. Peng, A. Petrone, 
 T. Henderson, D. Ranasinghe, V. G. Zakrzewski, J. Gao, N. Rega, 
 G. Zheng, W. Liang, M. Hada, M. Ehara, K. Toyota, R. Fukuda, 
 J. Hasegawa, M. Ishida, T. Nakajima, Y. Honda, O. Kitao, H. Nakai, 
 T. Vreven, K. Throssell, J. A. Montgomery, Jr., J. E. Peralta, 
 F. Ogliaro, M. J. Bearpark, J. J. Heyd, E. N. Brothers, K. N. Kudin, 
 V. N. Staroverov, T. A. Keith, R. Kobayashi, J. Normand, 
 K. Raghavachari, A. P. Rendell, J. C. Burant, S. S. Iyengar, 
 J. Tomasi, M. Cossi, J. M. Millam, M. Klene, C. Adamo, R. Cammi, 
 J. W. Ochterski, R. L. Martin, K. Morokuma, O. Farkas, 
 J. B. Foresman, and D. J. Fox, Gaussian, Inc., Wallingford CT, 2016.
 
 ******************************************
 Gaussian 16:  EM64L-G16RevB.01 20-Dec-2017
                20-May-2019 
 ******************************************
 %mem=2GB
 %nproc=16
 Will use up to   16 processors via shared memory.
 ------------------
 #p td B3LYP/6-31G*
 ------------------
 1/38=1,172=1/1;
 2/12=2,17=6,18=5,40=1/2;
 3/5=1,6=6,7=1,11=9,25=1,30=1,74=-5/1,2,3,8;
 4//1;
 5/5=2,38=5/2;
 8/6=1,10=2/1;
 9/42=1,70=2/14;
 6/7=2,8=2,9=2,10=2/1;
 99/5=1,9=1/99;
 Leave Link    1 at Mon May 20 18:53:37 2019, MaxMem=   268435456 cpu:               1.0 elap:               0.1
 (Enter /usr/local/gaussian/gaussian16.b1-legacy/g16/l101.exe)
 ---------------------------
 Scan step 15 E= -155.986288
 ---------------------------
 Symbolic Z-matrix:
 Charge =  0 Multiplicity = 1
 C                     0.32008  -0.66199   0.54332 
 H                     0.79154  -0.96341   1.47987 
 C                    -0.32008   0.66199   0.54332 
 H                    -0.79154   0.96341   1.47987 
 C                    -0.32008   1.52063  -0.48357 
 H                     0.18879   1.29193  -1.41673 
 H                    -0.82332   2.48143  -0.42163 
 C                     0.32008  -1.52063  -0.48357 
 H                    -0.18879  -1.29193  -1.41673 
 H                     0.82332  -2.48143  -0.42163 
 
 ITRead=  0  0  0  0  0  0  0  0  0  0
 MicOpt= -1 -1 -1 -1 -1 -1 -1 -1 -1 -1
 NAtoms=     10 NQM=       10 NQMF=       0 NMMI=      0 NMMIF=      0
                NMic=       0 NMicF=      0.
                    Isotopes and Nuclear Properties:
 (Nuclear quadrupole moments (NQMom) in fm**2, nuclear magnetic moments (NMagM)
  in nuclear magnetons)

  Atom         1           2           3           4           5           6           7           8           9          10
 IAtWgt=          12           1          12           1          12           1           1          12           1           1
 AtmWgt=  12.0000000   1.0078250  12.0000000   1.0078250  12.0000000   1.0078250   1.0078250  12.0000000   1.0078250   1.0078250
 NucSpn=           0           1           0           1           0           1           1           0           1           1
 AtZEff=  -0.0000000  -0.0000000  -0.0000000  -0.0000000  -0.0000000  -0.0000000  -0.0000000  -0.0000000  -0.0000000  -0.0000000
 NQMom=    0.0000000   0.0000000   0.0000000   0.0000000   0.0000000   0.0000000   0.0000000   0.0000000   0.0000000   0.0000000
 NMagM=    0.0000000   2.7928460   0.0000000   2.7928460   0.0000000   2.7928460   2.7928460   0.0000000   2.7928460   2.7928460
 AtZNuc=   6.0000000   1.0000000   6.0000000   1.0000000   6.0000000   1.0000000   1.0000000   6.0000000   1.0000000   1.0000000
 Leave Link  101 at Mon May 20 18:53:37 2019, MaxMem=   268435456 cpu:               2.2 elap:               0.2
 (Enter /usr/local/gaussian/gaussian16.b1-legacy/g16/l202.exe)
                          Input orientation:                          
 ---------------------------------------------------------------------
 Center     Atomic      Atomic             Coordinates (Angstroms)
 Number     Number       Type             X           Y           Z
 ---------------------------------------------------------------------
      1          6           0        0.320075   -0.661991    0.543321
      2          1           0        0.791537   -0.963409    1.479873
      3          6           0       -0.320075    0.661991    0.543321
      4          1           0       -0.791537    0.963409    1.479873
      5          6           0       -0.320075    1.520632   -0.483574
      6          1           0        0.188788    1.291932   -1.416725
      7          1           0       -0.823318    2.481430   -0.421625
      8          6           0        0.320075   -1.520632   -0.483574
      9          1           0       -0.188788   -1.291932   -1.416725
     10          1           0        0.823318   -2.481430   -0.421625
 ---------------------------------------------------------------------
                    Distance matrix (angstroms):
                    1          2          3          4          5
     1  C    0.000000
     2  H    1.090990   0.000000
     3  C    1.470619   2.180536   0.000000
     4  H    2.180536   2.493742   1.090990   0.000000
     5  C    2.495626   3.355781   1.338573   2.094731   0.000000
     6  H    2.770710   3.720235   2.120742   3.075588   1.087206
     7  H    3.481316   4.253277   2.120078   2.433329   1.086381
     8  C    1.338573   2.094731   2.495626   3.355781   3.107906
     9  H    2.120742   3.075588   2.770710   3.720235   2.966230
    10  H    2.120078   2.433329   3.481316   4.253277   4.162654
                    6          7          8          9         10
     6  H    0.000000
     7  H    1.851888   0.000000
     8  C    2.966230   4.162654   0.000000
     9  H    2.611306   3.953620   1.087206   0.000000
    10  H    3.953620   5.228899   1.086381   1.851888   0.000000
 Stoichiometry    C4H6
 Framework group  C2[X(C4H6)]
 Deg. of freedom    13
 Full point group                 C2      NOp   2
 Largest Abelian subgroup         C2      NOp   2
 Largest concise Abelian subgroup C2      NOp   2
                         Standard orientation:                         
 ---------------------------------------------------------------------
 Center     Atomic      Atomic             Coordinates (Angstroms)
 Number     Number       Type             X           Y           Z
 ---------------------------------------------------------------------
      1          6           0        0.320075   -0.661991    0.543321
      2          1           0        0.791537   -0.963409    1.479873
      3          6           0       -0.320075    0.661991    0.543321
      4          1           0       -0.791537    0.963409    1.479873
      5          6           0       -0.320075    1.520632   -0.483574
      6          1           0        0.188788    1.291932   -1.416725
      7          1           0       -0.823318    2.481430   -0.421625
      8          6           0        0.320075   -1.520632   -0.483574
      9          1           0       -0.188788   -1.291932   -1.416725
     10          1           0        0.823318   -2.481430   -0.421625
 ---------------------------------------------------------------------
 Rotational constants (GHZ):          21.7336820           5.5366825           4.5514529
 Leave Link  202 at Mon May 20 18:53:37 2019, MaxMem=   268435456 cpu:               2.0 elap:               0.2
 (Enter /usr/local/gaussian/gaussian16.b1-legacy/g16/l301.exe)
 Standard basis: 6-31G(d) (6D, 7F)
 Ernie: Thresh=  0.10000D-02 Tol=  0.10000D-05 Strict=F.
 There are    36 symmetry adapted cartesian basis functions of A   symmetry.
 There are    36 symmetry adapted cartesian basis functions of B   symmetry.
 There are    36 symmetry adapted basis functions of A   symmetry.
 There are    36 symmetry adapted basis functions of B   symmetry.
    72 basis functions,   136 primitive gaussians,    72 cartesian basis functions
    15 alpha electrons       15 beta electrons
       nuclear repulsion energy       104.5962203627 Hartrees.
 IExCor=  402 DFT=T Ex+Corr=B3LYP ExCW=0 ScaHFX=  0.200000
 ScaDFX=  0.800000  0.720000  1.000000  0.810000 ScalE2=  1.000000  1.000000
 IRadAn=      5 IRanWt=     -1 IRanGd=            0 ICorTp=0 IEmpDi=  4
 NAtoms=   10 NActive=   10 NUniq=    5 SFac= 4.00D+00 NAtFMM=   60 NAOKFM=F Big=F
 Integral buffers will be    131072 words long.
 Regular integral format.
 Two-electron integral symmetry is turned on.
 Leave Link  301 at Mon May 20 18:53:38 2019, MaxMem=   268435456 cpu:               2.1 elap:               0.2
 (Enter /usr/local/gaussian/gaussian16.b1-legacy/g16/l302.exe)
 NPDir=0 NMtPBC=     1 NCelOv=     1 NCel=       1 NClECP=     1 NCelD=      1
         NCelK=      1 NCelE2=     1 NClLst=     1 CellRange=     0.0.
 One-electron integrals computed using PRISM.
 One-electron integral symmetry used in STVInt
 NBasis=    72 RedAO= T EigKep=  3.75D-03  NBF=    36    36
 NBsUse=    72 1.00D-06 EigRej= -1.00D+00 NBFU=    36    36
 Precomputing XC quadrature grid using
 IXCGrd= 4 IRadAn=           5 IRanWt=          -1 IRanGd=           0 AccXCQ= 0.00D+00.
 Generated NRdTot=       0 NPtTot=           0 NUsed=           0 NTot=          32
 NSgBfM=    72    72    72    72    72 MxSgAt=    10 MxSgA2=    10.
 Leave Link  302 at Mon May 20 18:53:39 2019, MaxMem=   268435456 cpu:              15.4 elap:               1.0
 (Enter /usr/local/gaussian/gaussian16.b1-legacy/g16/l303.exe)
 DipDrv:  MaxL=1.
 Leave Link  303 at Mon May 20 18:53:39 2019, MaxMem=   268435456 cpu:               1.5 elap:               0.1
 (Enter /usr/local/gaussian/gaussian16.b1-legacy/g16/l308.exe)
 Leave Link  308 at Mon May 20 18:53:39 2019, MaxMem=   268435456 cpu:               2.2 elap:               0.2
 (Enter /usr/local/gaussian/gaussian16.b1-legacy/g16/l401.exe)
 ExpMin= 1.61D-01 ExpMax= 3.05D+03 ExpMxC= 4.57D+02 IAcc=3 IRadAn=         5 AccDes= 0.00D+00
 Harris functional with IExCor=  402 and IRadAn=       5 diagonalized for initial guess.
 HarFok:  IExCor=  402 AccDes= 0.00D+00 IRadAn=         5 IDoV= 1 UseB2=F ITyADJ=14
 ICtDFT=  3500011 ScaDFX=  1.000000  1.000000  1.000000  1.000000
 FoFCou: FMM=F IPFlag=           0 FMFlag=      100000 FMFlg1=           0
         NFxFlg=           0 DoJE=T BraDBF=F KetDBF=T FulRan=T
         wScrn=  0.000000 ICntrl=       500 IOpCl=  0 I1Cent=   200000004 NGrid=           0
         NMat0=    1 NMatS0=      1 NMatT0=    0 NMatD0=    1 NMtDS0=    0 NMtDT0=    0
 Petite list used in FoFCou.
 Harris En= -156.031499930943    
 JPrj=0 DoOrth=F DoCkMO=F.
 Initial guess orbital symmetries:
       Occupied  (B) (A) (A) (B) (A) (B) (A) (B) (A) (A) (B) (B)
                 (A) (B) (A)
       Virtual   (B) (A) (A) (A) (B) (B) (B) (A) (A) (B) (B) (A)
                 (B) (A) (B) (A) (A) (B) (A) (B) (A) (A) (B) (B)
                 (A) (B) (A) (B) (B) (A) (B) (B) (A) (A) (B) (B)
                 (A) (B) (A) (A) (A) (B) (B) (A) (B) (A) (B) (A)
                 (B) (A) (A) (B) (B) (A) (B) (A) (B)
 The electronic state of the initial guess is 1-A.
 Leave Link  401 at Mon May 20 18:53:40 2019, MaxMem=   268435456 cpu:              15.0 elap:               1.0
 (Enter /usr/local/gaussian/gaussian16.b1-legacy/g16/l502.exe)
 Keep R1 ints in memory in symmetry-blocked form, NReq=17821408.
 FoFCou: FMM=F IPFlag=           0 FMFlag=           0 FMFlg1=           0
         NFxFlg=           0 DoJE=F BraDBF=F KetDBF=F FulRan=T
         wScrn=  0.000000 ICntrl=       600 IOpCl=  0 I1Cent=           0 NGrid=           0
         NMat0=    1 NMatS0=   2628 NMatT0=    0 NMatD0=    1 NMtDS0=    0 NMtDT0=    0
 Petite list used in FoFCou.
 Closed shell SCF:
 Using DIIS extrapolation, IDIIS=  1040.
 NGot=   268435456 LenX=   266688778 LenY=   266683153
 Requested convergence on RMS density matrix=1.00D-08 within 128 cycles.
 Requested convergence on MAX density matrix=1.00D-06.
 Requested convergence on             energy=1.00D-06.
 No special actions if energy rises.
 Integral accuracy reduced to 1.0D-05 until final iterations.

 Cycle   1  Pass 0  IDiag  1:
 E= -155.848199660579    
 DIIS: error= 4.52D-02 at cycle   1 NSaved=   1.
 NSaved= 1 IEnMin= 1 EnMin= -155.848199660579     IErMin= 1 ErrMin= 4.52D-02
 ErrMax= 4.52D-02  0.00D+00 EMaxC= 1.00D-01 BMatC= 1.20D-01 BMatP= 1.20D-01
 IDIUse=3 WtCom= 5.48D-01 WtEn= 4.52D-01
 Coeff-Com:  0.100D+01
 Coeff-En:   0.100D+01
 Coeff:      0.100D+01
 Gap=     0.210 Goal=   None    Shift=    0.000
 GapD=    0.210 DampG=1.000 DampE=0.500 DampFc=0.5000 IDamp=-1.
 Damping current iteration by 5.00D-01
 RMSDP=1.02D-02 MaxDP=1.12D-01              OVMax= 1.59D-01

 Cycle   2  Pass 0  IDiag  1:
 E= -155.915962650433     Delta-E=       -0.067762989854 Rises=F Damp=T
 DIIS: error= 7.48D-03 at cycle   2 NSaved=   2.
 NSaved= 2 IEnMin= 2 EnMin= -155.915962650433     IErMin= 2 ErrMin= 7.48D-03
 ErrMax= 7.48D-03  0.00D+00 EMaxC= 1.00D-01 BMatC= 3.84D-03 BMatP= 1.20D-01
 IDIUse=3 WtCom= 9.25D-01 WtEn= 7.48D-02
 Coeff-Com: -0.249D-02 0.100D+01
 Coeff-En:   0.000D+00 0.100D+01
 Coeff:     -0.230D-02 0.100D+01
 Gap=     0.218 Goal=   None    Shift=    0.000
 RMSDP=1.60D-03 MaxDP=1.42D-02 DE=-6.78D-02 OVMax= 8.50D-02

 Cycle   3  Pass 0  IDiag  1:
 E= -155.986072932520     Delta-E=       -0.070110282087 Rises=F Damp=F
 DIIS: error= 2.01D-03 at cycle   3 NSaved=   3.
 NSaved= 3 IEnMin= 3 EnMin= -155.986072932520     IErMin= 3 ErrMin= 2.01D-03
 ErrMax= 2.01D-03  0.00D+00 EMaxC= 1.00D-01 BMatC= 1.95D-04 BMatP= 3.84D-03
 IDIUse=3 WtCom= 9.80D-01 WtEn= 2.01D-02
 Coeff-Com: -0.193D-01 0.120D+00 0.899D+00
 Coeff-En:   0.000D+00 0.000D+00 0.100D+01
 Coeff:     -0.190D-01 0.118D+00 0.901D+00
 Gap=     0.216 Goal=   None    Shift=    0.000
 RMSDP=3.20D-04 MaxDP=2.41D-03 DE=-7.01D-02 OVMax= 4.79D-03

 Cycle   4  Pass 0  IDiag  1:
 E= -155.986253632934     Delta-E=       -0.000180700414 Rises=F Damp=F
 DIIS: error= 4.98D-04 at cycle   4 NSaved=   4.
 NSaved= 4 IEnMin= 4 EnMin= -155.986253632934     IErMin= 4 ErrMin= 4.98D-04
 ErrMax= 4.98D-04  0.00D+00 EMaxC= 1.00D-01 BMatC= 1.96D-05 BMatP= 1.95D-04
 IDIUse=3 WtCom= 9.95D-01 WtEn= 4.98D-03
 Coeff-Com: -0.502D-02 0.128D-01 0.273D+00 0.719D+00
 Coeff-En:   0.000D+00 0.000D+00 0.000D+00 0.100D+01
 Coeff:     -0.499D-02 0.127D-01 0.272D+00 0.720D+00
 Gap=     0.216 Goal=   None    Shift=    0.000
 RMSDP=9.04D-05 MaxDP=6.17D-04 DE=-1.81D-04 OVMax= 1.15D-03

 Cycle   5  Pass 0  IDiag  1:
 E= -155.986273501787     Delta-E=       -0.000019868853 Rises=F Damp=F
 DIIS: error= 5.22D-05 at cycle   5 NSaved=   5.
 NSaved= 5 IEnMin= 5 EnMin= -155.986273501787     IErMin= 5 ErrMin= 5.22D-05
 ErrMax= 5.22D-05  0.00D+00 EMaxC= 1.00D-01 BMatC= 1.62D-07 BMatP= 1.96D-05
 IDIUse=1 WtCom= 1.00D+00 WtEn= 0.00D+00
 Coeff-Com: -0.742D-03 0.913D-03 0.454D-01 0.155D+00 0.799D+00
 Coeff:     -0.742D-03 0.913D-03 0.454D-01 0.155D+00 0.799D+00
 Gap=     0.216 Goal=   None    Shift=    0.000
 RMSDP=1.34D-05 MaxDP=9.76D-05 DE=-1.99D-05 OVMax= 3.48D-04

 Cycle   6  Pass 0  IDiag  1:
 E= -155.986273569233     Delta-E=       -0.000000067446 Rises=F Damp=F
 DIIS: error= 5.57D-05 at cycle   6 NSaved=   6.
 NSaved= 6 IEnMin= 6 EnMin= -155.986273569233     IErMin= 5 ErrMin= 5.22D-05
 ErrMax= 5.57D-05  0.00D+00 EMaxC= 1.00D-01 BMatC= 1.44D-07 BMatP= 1.62D-07
 IDIUse=1 WtCom= 1.00D+00 WtEn= 0.00D+00
 Coeff-Com: -0.312D-03 0.573D-04 0.214D-01 0.807D-01 0.525D+00 0.374D+00
 Coeff:     -0.312D-03 0.573D-04 0.214D-01 0.807D-01 0.525D+00 0.374D+00
 Gap=     0.216 Goal=   None    Shift=    0.000
 RMSDP=4.86D-06 MaxDP=6.35D-05 DE=-6.74D-08 OVMax= 1.80D-04

 Initial convergence to 1.0D-05 achieved.  Increase integral accuracy.
 Cycle   7  Pass 1  IDiag  1:
 E= -155.986287688191     Delta-E=       -0.000014118958 Rises=F Damp=F
 DIIS: error= 4.18D-06 at cycle   1 NSaved=   1.
 NSaved= 1 IEnMin= 1 EnMin= -155.986287688191     IErMin= 1 ErrMin= 4.18D-06
 ErrMax= 4.18D-06  0.00D+00 EMaxC= 1.00D-01 BMatC= 2.24D-09 BMatP= 2.24D-09
 IDIUse=1 WtCom= 1.00D+00 WtEn= 0.00D+00
 Coeff-Com:  0.100D+01
 Coeff:      0.100D+01
 Gap=     0.216 Goal=   None    Shift=    0.000
 RMSDP=4.86D-06 MaxDP=6.35D-05 DE=-1.41D-05 OVMax= 3.99D-05

 Cycle   8  Pass 1  IDiag  1:
 E= -155.986287687695     Delta-E=        0.000000000496 Rises=F Damp=F
 DIIS: error= 8.02D-06 at cycle   2 NSaved=   2.
 NSaved= 2 IEnMin= 1 EnMin= -155.986287688191     IErMin= 1 ErrMin= 4.18D-06
 ErrMax= 8.02D-06  0.00D+00 EMaxC= 1.00D-01 BMatC= 3.43D-09 BMatP= 2.24D-09
 IDIUse=1 WtCom= 1.00D+00 WtEn= 0.00D+00
 Coeff-Com:  0.564D+00 0.436D+00
 Coeff:      0.564D+00 0.436D+00
 Gap=     0.216 Goal=   None    Shift=    0.000
 RMSDP=8.50D-07 MaxDP=1.15D-05 DE= 4.96D-10 OVMax= 3.12D-05

 Cycle   9  Pass 1  IDiag  1:
 E= -155.986287690793     Delta-E=       -0.000000003098 Rises=F Damp=F
 DIIS: error= 2.41D-06 at cycle   3 NSaved=   3.
 NSaved= 3 IEnMin= 3 EnMin= -155.986287690793     IErMin= 3 ErrMin= 2.41D-06
 ErrMax= 2.41D-06  0.00D+00 EMaxC= 1.00D-01 BMatC= 3.07D-10 BMatP= 2.24D-09
 IDIUse=1 WtCom= 1.00D+00 WtEn= 0.00D+00
 Coeff-Com:  0.525D-01 0.232D+00 0.715D+00
 Coeff:      0.525D-01 0.232D+00 0.715D+00
 Gap=     0.216 Goal=   None    Shift=    0.000
 RMSDP=3.03D-07 MaxDP=2.88D-06 DE=-3.10D-09 OVMax= 9.55D-06

 Cycle  10  Pass 1  IDiag  1:
 E= -155.986287691133     Delta-E=       -0.000000000340 Rises=F Damp=F
 DIIS: error= 3.51D-07 at cycle   4 NSaved=   4.
 NSaved= 4 IEnMin= 4 EnMin= -155.986287691133     IErMin= 4 ErrMin= 3.51D-07
 ErrMax= 3.51D-07  0.00D+00 EMaxC= 1.00D-01 BMatC= 9.38D-12 BMatP= 3.07D-10
 IDIUse=1 WtCom= 1.00D+00 WtEn= 0.00D+00
 Coeff-Com: -0.858D-02 0.455D-01 0.253D+00 0.710D+00
 Coeff:     -0.858D-02 0.455D-01 0.253D+00 0.710D+00
 Gap=     0.216 Goal=   None    Shift=    0.000
 RMSDP=6.06D-08 MaxDP=3.51D-07 DE=-3.40D-10 OVMax= 1.32D-06

 Cycle  11  Pass 1  IDiag  1:
 E= -155.986287691143     Delta-E=       -0.000000000010 Rises=F Damp=F
 DIIS: error= 4.65D-08 at cycle   5 NSaved=   5.
 NSaved= 5 IEnMin= 5 EnMin= -155.986287691143     IErMin= 5 ErrMin= 4.65D-08
 ErrMax= 4.65D-08  0.00D+00 EMaxC= 1.00D-01 BMatC= 1.62D-13 BMatP= 9.38D-12
 IDIUse=1 WtCom= 1.00D+00 WtEn= 0.00D+00
 Coeff-Com: -0.456D-02 0.775D-02 0.640D-01 0.207D+00 0.726D+00
 Coeff:     -0.456D-02 0.775D-02 0.640D-01 0.207D+00 0.726D+00
 Gap=     0.216 Goal=   None    Shift=    0.000
 RMSDP=8.27D-09 MaxDP=6.61D-08 DE=-9.61D-12 OVMax= 1.40D-07

 SCF Done:  E(RB3LYP) =  -155.986287691     A.U. after   11 cycles
            NFock= 11  Conv=0.83D-08     -V/T= 2.0103
 KE= 1.543937417860D+02 PE=-5.696543740040D+02 EE= 1.546781241641D+02
 Leave Link  502 at Mon May 20 18:53:49 2019, MaxMem=   268435456 cpu:             134.3 elap:               9.0
 (Enter /usr/local/gaussian/gaussian16.b1-legacy/g16/l801.exe)
 DoSCS=F DFT=T ScalE2(SS,OS)=  1.000000  1.000000
 ExpMin= 1.61D-01 ExpMax= 3.05D+03 ExpMxC= 4.57D+02 IAcc=3 IRadAn=         5 AccDes= 0.00D+00
 HarFok:  IExCor=  205 AccDes= 0.00D+00 IRadAn=         5 IDoV=-2 UseB2=F ITyADJ=14
 ICtDFT= 12500011 ScaDFX=  1.000000  1.000000  1.000000  1.000000
 Largest valence mixing into a core orbital is  5.40D-05
 Largest core mixing into a valence orbital is  1.19D-05
 Range of M.O.s used for correlation:     5    72
 NBasis=    72 NAE=    15 NBE=    15 NFC=     4 NFV=     0
 NROrb=     68 NOA=    11 NOB=    11 NVA=    57 NVB=    57
 Leave Link  801 at Mon May 20 18:53:50 2019, MaxMem=   268435456 cpu:               8.8 elap:               0.6
 (Enter /usr/local/gaussian/gaussian16.b1-legacy/g16/l914.exe)
 RHF ground state
 Keep R1, R2, and R3 ints in memory in symmetry-blocked form, NReq=23896504.
 FoFCou: FMM=F IPFlag=           0 FMFlag=           0 FMFlg1=           0
         NFxFlg=           0 DoJE=F BraDBF=F KetDBF=F FulRan=T
         wScrn=  0.000000 ICntrl=       600 IOpCl=  0 I1Cent=           0 NGrid=           0
         NMat0=    1 NMatS0=   2628 NMatT0=    0 NMatD0=    1 NMtDS0=    0 NMtDT0=    0
 Petite list used in FoFCou.
 MDV=   268435456 DFT=T DoStab=F Mixed=T DoRPA=T DoScal=F NonHer=T
 Making orbital integer symmetry assigments:
 Orbital symmetries:
       Occupied  (A) (B) (B) (A) (A) (B) (A) (B) (A) (A) (B) (B)
                 (A) (B) (A)
       Virtual   (B) (A) (A) (A) (B) (B) (B) (A) (A) (B) (B) (A)
                 (A) (B) (B) (A) (A) (B) (A) (B) (A) (A) (B) (B)
                 (A) (B) (A) (B) (B) (A) (B) (B) (A) (A) (B) (B)
                 (A) (B) (A) (A) (A) (B) (B) (A) (B) (A) (B) (A)
                 (B) (A) (A) (B) (B) (A) (B) (A) (B)
    12 initial guesses have been made.
 Convergence on wavefunction:    0.001000000000000
 Davidson Disk Diagonalization:  ConvIn= 1.00D-03 SkipCon=T Conv= 1.00D-03.
 Max sub-space:  2000 roots to seek:    12 dimension of matrix:         1254
 Iteration     1 Dimension    12 NMult     0 NNew     12
 CISAX will form    12 AO SS matrices at one time.
 NMat=    12 NSing=    12 JSym2X=-1.
 New state      3 was old state      4
 Excitation Energies [eV] at current iteration:
 Root      1 :     6.485371041106974
 Root      2 :     6.782907174537103
 Root      3 :     7.579519768964508
 Root      4 :     8.205515857734321
 Root      5 :     8.247015014732007
 Root      6 :     8.861767934033521
 Root      7 :     9.313435798014426
 Root      8 :     9.481556535607975
 Root      9 :     9.817148187138745
 Root     10 :     9.970386704898550
 Root     11 :    10.315719567045430
 Root     12 :    10.659881802523050
 Iteration     2 Dimension    18 NMult    12 NNew      6
 CISAX will form     6 AO SS matrices at one time.
 NMat=     6 NSing=     6 JSym2X=-1.
 Root      1 not converged, maximum delta is    0.055549560486082
 Root      2 not converged, maximum delta is    0.024740804352339
 Root      3 not converged, maximum delta is    0.038705117197970
 Excitation Energies [eV] at current iteration:
 Root      1 :     5.899561971838221   Change is   -0.585809069268754
 Root      2 :     6.745879431845524   Change is   -0.037027742691579
 Root      3 :     7.515093851549898   Change is   -0.064425917414610
 Iteration     3 Dimension    24 NMult    18 NNew      6
 CISAX will form     6 AO SS matrices at one time.
 NMat=     6 NSing=     6 JSym2X=-1.
 Root      1 not converged, maximum delta is    0.027785601511437
 Root      2 not converged, maximum delta is    0.006996743346200
 Root      3 not converged, maximum delta is    0.005726608142162
 Excitation Energies [eV] at current iteration:
 Root      1 :     5.855818859579919   Change is   -0.043743112258302
 Root      2 :     6.743184094660417   Change is   -0.002695337185107
 Root      3 :     7.511010598806982   Change is   -0.004083252742916
 Iteration     4 Dimension    30 NMult    24 NNew      6
 CISAX will form     6 AO SS matrices at one time.
 NMat=     6 NSing=     6 JSym2X=-1.
 Root      1 not converged, maximum delta is    0.003267271500203
 Root      2 not converged, maximum delta is    0.002025284541377
 Root      3 has converged.
 Excitation Energies [eV] at current iteration:
 Root      1 :     5.853676547697807   Change is   -0.002142311882111
 Root      2 :     6.742861325970403   Change is   -0.000322768690013
 Root      3 :     7.510711971995083   Change is   -0.000298626811899
 Iteration     5 Dimension    34 NMult    30 NNew      4
 CISAX will form     4 AO SS matrices at one time.
 NMat=     4 NSing=     4 JSym2X=-1.
 Root      1 has converged.
 Root      2 has converged.
 Root      3 has converged.
 Excitation Energies [eV] at current iteration:
 Root      1 :     5.853597045393549   Change is   -0.000079502304259
 Root      2 :     6.742840451341332   Change is   -0.000020874629071
 Root      3 :     7.510710126209718   Change is   -0.000001845785365
 Convergence achieved on expansion vectors.
 ***********************************************************************
 Excited states from <AA,BB:AA,BB> singles matrix:
 ***********************************************************************
 
 1PDM for each excited state written to RWF  633
 Ground to excited state transition densities written to RWF  633
 Ground to excited state transition electric dipole moments (Au):
       state          X           Y           Z        Dip. S.      Osc.
         1         0.2301     -1.4479     -0.0000      2.1493      0.3082
         2         0.0000     -0.0000      0.1559      0.0243      0.0040
         3        -0.0119      0.0005     -0.0000      0.0001      0.0000
 Ground to excited state transition velocity dipole moments (Au):
       state          X           Y           Z        Dip. S.      Osc.
         1        -0.0455      0.3178      0.0000      0.1030      0.3193
         2        -0.0000      0.0000     -0.0404      0.0016      0.0044
         3        -0.0134     -0.0132      0.0000      0.0004      0.0009
 Ground to excited state transition magnetic dipole moments (Au):
       state          X           Y           Z
         1        -0.8373     -0.1067     -0.0000
         2        -0.0000     -0.0000      0.0495
         3         0.3383      0.6795      0.0000
 Ground to excited state transition velocity quadrupole moments (Au):
       state          XX          YY          ZZ          XY          XZ          YZ
         1        -0.0000     -0.0000     -0.0000      0.0000      0.1112     -0.4760
         2         0.0540      0.0680     -0.0536     -0.0544      0.0000     -0.0000
         3        -0.0000     -0.0000     -0.0000      0.0000     -0.0320      0.1458
 <0|del|b> * <b|rxdel|0> + <0|del|b> * <b|delr+rdel|0>
 Rotatory Strengths (R) in cgs (10**-40 erg-esu-cm/Gauss)
       state          XX          YY          ZZ    R(velocity)    E-M Angle
         1      -113.8110     98.2259     29.3783      4.5978       89.11
         2         0.2793     -5.9823      0.0000     -1.9010       90.00
         3       -12.0002     -8.3350    -14.2346    -11.5233      160.88
 1/2[<0|r|b>*<b|rxdel|0> + (<0|rxdel|b>*<b|r|0>)*]
 Rotatory Strengths (R) in cgs (10**-40 erg-esu-cm/Gauss)
       state          XX          YY          ZZ     R(length)
         1       136.2420   -109.2485     -0.0000      8.9978
         2         0.0000     -0.0000     -5.4561     -1.8187
         3         2.8498     -0.2417      0.0000      0.8694
  1/2[<0|del|b>*<b|r|0> + (<0|r|b>*<b|del|0>)*] (Au)
       state          X           Y           Z        Dip. S.   Osc.(frdel)
         1        -0.0105     -0.4601     -0.0000      0.4705      0.3137
         2        -0.0000     -0.0000     -0.0063      0.0063      0.0042
         3         0.0002     -0.0000     -0.0000     -0.0002     -0.0001

 Excitation energies and oscillator strengths:
 
 Excited State   1:      Singlet-B      5.8536 eV  211.81 nm  f=0.3082  <S**2>=0.000
      15 -> 16         0.70036
 This state for optimization and/or second-order correction.
 Total Energy, E(TD-HF/TD-DFT) =  -155.771171958    
 Copying the excited state density for this state as the 1-particle RhoCI density.
 
 Excited State   2:      Singlet-A      6.7428 eV  183.88 nm  f=0.0040  <S**2>=0.000
      14 -> 16         0.55833
      15 -> 17        -0.42944
 
 Excited State   3:      Singlet-B      7.5107 eV  165.08 nm  f=0.0000  <S**2>=0.000
      13 -> 16         0.70251
 SavETr:  write IOETrn=   770 NScale= 10 NData=  16 NLR=1 NState=    3 LETran=      64.
 Leave Link  914 at Mon May 20 18:53:58 2019, MaxMem=   268435456 cpu:             130.4 elap:               8.7
 (Enter /usr/local/gaussian/gaussian16.b1-legacy/g16/l601.exe)
 Copying SCF densities to generalized density rwf, IOpCl= 0 IROHF=0.

 **********************************************************************

            Population analysis using the SCF Density.

 **********************************************************************

 Orbital symmetries:
       Occupied  (A) (B) (B) (A) (A) (B) (A) (B) (A) (A) (B) (B)
                 (A) (B) (A)
       Virtual   (B) (A) (A) (A) (B) (B) (B) (A) (A) (B) (B) (A)
                 (A) (B) (B) (A) (A) (B) (A) (B) (A) (A) (B) (B)
                 (A) (B) (A) (B) (B) (A) (B) (B) (A) (A) (B) (B)
                 (A) (B) (A) (A) (A) (B) (B) (A) (B) (A) (B) (A)
                 (B) (A) (A) (B) (B) (A) (B) (A) (B)
 The electronic state is 1-A.
 Alpha  occ. eigenvalues --  -10.19212 -10.19180 -10.18215 -10.18215  -0.79938
 Alpha  occ. eigenvalues --   -0.72403  -0.61449  -0.52843  -0.48526  -0.43135
 Alpha  occ. eigenvalues --   -0.42391  -0.36977  -0.34498  -0.30065  -0.23364
 Alpha virt. eigenvalues --   -0.01790   0.06881   0.11305   0.13153   0.14877
 Alpha virt. eigenvalues --    0.17129   0.18888   0.21392   0.31909   0.33804
 Alpha virt. eigenvalues --    0.39689   0.48476   0.53847   0.53863   0.57162
 Alpha virt. eigenvalues --    0.58562   0.63777   0.65564   0.67151   0.68775
 Alpha virt. eigenvalues --    0.68963   0.84246   0.85265   0.87067   0.89331
 Alpha virt. eigenvalues --    0.92698   0.94120   0.94795   0.96520   1.09667
 Alpha virt. eigenvalues --    1.15058   1.19630   1.27595   1.49811   1.51890
 Alpha virt. eigenvalues --    1.53624   1.65600   1.76234   1.78508   1.91527
 Alpha virt. eigenvalues --    1.96429   2.00246   2.10557   2.11726   2.20651
 Alpha virt. eigenvalues --    2.26434   2.35576   2.45486   2.50521   2.60851
 Alpha virt. eigenvalues --    2.69353   2.83616   3.02840   4.08910   4.13286
 Alpha virt. eigenvalues --    4.22436   4.44593
          Condensed to atoms (all electrons):
               1          2          3          4          5          6
     1  C    4.781988   0.361764   0.430295  -0.046740  -0.039551  -0.010445
     2  H    0.361764   0.602826  -0.046740  -0.002827   0.004626   0.000113
     3  C    0.430295  -0.046740   4.781988   0.361764   0.666607  -0.035236
     4  H   -0.046740  -0.002827   0.361764   0.602826  -0.049900   0.006008
     5  C   -0.039551   0.004626   0.666607  -0.049900   5.024711   0.368386
     6  H   -0.010445   0.000113  -0.035236   0.006008   0.368386   0.561835
     7  H    0.004800  -0.000176  -0.024328  -0.007542   0.362644  -0.041659
     8  C    0.666607  -0.049900  -0.039551   0.004626  -0.014727   0.005419
     9  H   -0.035236   0.006008  -0.010445   0.000113   0.005419   0.001744
    10  H   -0.024328  -0.007542   0.004800  -0.000176   0.000128  -0.000120
               7          8          9         10
     1  C    0.004800   0.666607  -0.035236  -0.024328
     2  H   -0.000176  -0.049900   0.006008  -0.007542
     3  C   -0.024328  -0.039551  -0.010445   0.004800
     4  H   -0.007542   0.004626   0.000113  -0.000176
     5  C    0.362644  -0.014727   0.005419   0.000128
     6  H   -0.041659   0.005419   0.001744  -0.000120
     7  H    0.564554   0.000128  -0.000120   0.000003
     8  C    0.000128   5.024711   0.368386   0.362644
     9  H   -0.000120   0.368386   0.561835  -0.041659
    10  H    0.000003   0.362644  -0.041659   0.564554
 Mulliken charges:
               1
     1  C   -0.089155
     2  H    0.131847
     3  C   -0.089155
     4  H    0.131847
     5  C   -0.328343
     6  H    0.143955
     7  H    0.141696
     8  C   -0.328343
     9  H    0.143955
    10  H    0.141696
 Sum of Mulliken charges =   0.00000
 Mulliken charges with hydrogens summed into heavy atoms:
               1
     1  C    0.042691
     3  C    0.042691
     5  C   -0.042691
     8  C   -0.042691
 Electronic spatial extent (au):  <R**2>=            307.0657
 Charge=              0.0000 electrons
 Dipole moment (field-independent basis, Debye):
    X=             -0.0000    Y=             -0.0000    Z=              0.1406  Tot=              0.1406
 Quadrupole moment (field-independent basis, Debye-Ang):
   XX=            -26.4708   YY=            -23.7145   ZZ=            -22.9863
   XY=             -1.7272   XZ=             -0.0000   YZ=              0.0000
 Traceless Quadrupole moment (field-independent basis, Debye-Ang):
   XX=             -2.0802   YY=              0.6760   ZZ=              1.4042
   XY=             -1.7272   XZ=             -0.0000   YZ=              0.0000
 Octapole moment (field-independent basis, Debye-Ang**2):
  XXX=              0.0000  YYY=             -0.0000  ZZZ=              0.7550  XYY=              0.0000
  XXY=             -0.0000  XXZ=              1.0732  XZZ=             -0.0000  YZZ=             -0.0000
  YYZ=             -1.5905  XYZ=             -1.4735
 Hexadecapole moment (field-independent basis, Debye-Ang**3):
 XXXX=            -53.7996 YYYY=           -259.1943 ZZZZ=            -90.8497 XXXY=             33.5213
 XXXZ=              0.0000 YYYX=             19.7078 YYYZ=             -0.0000 ZZZX=              0.0000
 ZZZY=             -0.0000 XXYY=            -52.8129 XXZZ=            -24.1911 YYZZ=            -60.5320
 XXYZ=             -0.0000 YYXZ=             -0.0000 ZZXY=             10.5033
 N-N= 1.045962203627D+02 E-N=-5.696543681379D+02  KE= 1.543937417860D+02
 Symmetry A    KE= 7.845366532101D+01
 Symmetry B    KE= 7.594007646502D+01
 Leave Link  601 at Mon May 20 18:53:59 2019, MaxMem=   268435456 cpu:               7.0 elap:               0.5
 (Enter /usr/local/gaussian/gaussian16.b1-legacy/g16/l9999.exe)
 Electronic transition elements 
                 1             2             3 
      1  -0.155771D+03 -0.155738D+03 -0.155710D+03
      2   0.230090D+00  0.000000D+00 -0.119111D-01
      3  -0.144789D+01  0.000000D+00  0.502894D-03
      4   0.000000D+00  0.155853D+00  0.000000D+00
      5  -0.455014D-01  0.000000D+00 -0.134383D-01
      6   0.317751D+00  0.000000D+00 -0.131656D-01
      7   0.000000D+00 -0.403673D-01  0.000000D+00
      8  -0.837323D+00  0.000000D+00  0.338328D+00
      9  -0.106698D+00  0.000000D+00  0.679527D+00
     10   0.000000D+00  0.495045D-01  0.000000D+00
     11   0.000000D+00  0.539797D-01  0.000000D+00
     12   0.000000D+00  0.680267D-01  0.000000D+00
     13   0.000000D+00 -0.536138D-01  0.000000D+00
     14   0.000000D+00 -0.543529D-01  0.000000D+00
     15   0.111212D+00  0.000000D+00 -0.319965D-01
     16  -0.476033D+00  0.000000D+00  0.145843D+00
 1\1\GINC-BRAOJOS\SP\RB3LYP TD-FC\6-31G(d)\C4H6\ROOT\20-May-2019\0\\#p 
 td B3LYP/6-31G*\\Scan step 15 E= -155.986288\\0,1\C,0,0.320075,-0.6619
 91,0.543321\H,0,0.791537,-0.963409,1.479873\C,0,-0.320075,0.661991,0.5
 43321\H,0,-0.791537,0.963409,1.479873\C,0,-0.320075,1.520632,-0.483574
 \H,0,0.188788,1.291932,-1.416725\H,0,-0.823318,2.48143,-0.421625\C,0,0
 .320075,-1.520632,-0.483574\H,0,-0.188788,-1.291932,-1.416725\H,0,0.82
 3318,-2.48143,-0.421625\\Version=EM64L-G16RevB.01\State=1-A\HF=-155.98
 62877\RMSD=8.269e-09\PG=C02 [X(C4H6)]\\@


 THE MORE POWERFUL THE METHOD, THE MORE CATASTROPHIC THE ERRORS.
     -- M.D. KAMEN
 Job cpu time:       0 days  0 hours  5 minutes 23.9 seconds.
 Elapsed time:       0 days  0 hours  0 minutes 22.0 seconds.
 File lengths (MBytes):  RWF=     83 Int=      0 D2E=      0 Chk=      2 Scr=      1
 Normal termination of Gaussian 16 at Mon May 20 18:53:59 2019.
