 Entering Gaussian System, Link 0=g16
 Initial command:
 /usr/local/gaussian/gaussian16.b1-legacy/g16/l1.exe "/scratch/sonatak/Gau-57753.inp" -scrdir="/scratch/sonatak/"
 Entering Link 1 = /usr/local/gaussian/gaussian16.b1-legacy/g16/l1.exe PID=     57754.
  
 Copyright (c) 1988-2017, Gaussian, Inc.  All Rights Reserved.
  
 This is part of the Gaussian(R) 16 program.  It is based on
 the Gaussian(R) 09 system (copyright 2009, Gaussian, Inc.),
 the Gaussian(R) 03 system (copyright 2003, Gaussian, Inc.),
 the Gaussian(R) 98 system (copyright 1998, Gaussian, Inc.),
 the Gaussian(R) 94 system (copyright 1995, Gaussian, Inc.),
 the Gaussian 92(TM) system (copyright 1992, Gaussian, Inc.),
 the Gaussian 90(TM) system (copyright 1990, Gaussian, Inc.),
 the Gaussian 88(TM) system (copyright 1988, Gaussian, Inc.),
 the Gaussian 86(TM) system (copyright 1986, Carnegie Mellon
 University), and the Gaussian 82(TM) system (copyright 1983,
 Carnegie Mellon University). Gaussian is a federally registered
 trademark of Gaussian, Inc.
  
 This software contains proprietary and confidential information,
 including trade secrets, belonging to Gaussian, Inc.
  
 This software is provided under written license and may be
 used, copied, transmitted, or stored only in accord with that
 written license.
  
 The following legend is applicable only to US Government
 contracts under FAR:
  
                    RESTRICTED RIGHTS LEGEND
  
 Use, reproduction and disclosure by the US Government is
 subject to restrictions as set forth in subparagraphs (a)
 and (c) of the Commercial Computer Software - Restricted
 Rights clause in FAR 52.227-19.
  
 Gaussian, Inc.
 340 Quinnipiac St., Bldg. 40, Wallingford CT 06492
  
  
 ---------------------------------------------------------------
 Warning -- This program may not be used in any manner that
 competes with the business of Gaussian, Inc. or will provide
 assistance to any competitor of Gaussian, Inc.  The licensee
 of this program is prohibited from giving any competitor of
 Gaussian, Inc. access to this program.  By using this program,
 the user acknowledges that Gaussian, Inc. is engaged in the
 business of creating and licensing software in the field of
 computational chemistry and represents and warrants to the
 licensee that it is not a competitor of Gaussian, Inc. and that
 it will not use this program in any manner prohibited above.
 ---------------------------------------------------------------
  

 Cite this work as:
 Gaussian 16, Revision B.01,
 M. J. Frisch, G. W. Trucks, H. B. Schlegel, G. E. Scuseria, 
 M. A. Robb, J. R. Cheeseman, G. Scalmani, V. Barone, 
 G. A. Petersson, H. Nakatsuji, X. Li, M. Caricato, A. V. Marenich, 
 J. Bloino, B. G. Janesko, R. Gomperts, B. Mennucci, H. P. Hratchian, 
 J. V. Ortiz, A. F. Izmaylov, J. L. Sonnenberg, D. Williams-Young, 
 F. Ding, F. Lipparini, F. Egidi, J. Goings, B. Peng, A. Petrone, 
 T. Henderson, D. Ranasinghe, V. G. Zakrzewski, J. Gao, N. Rega, 
 G. Zheng, W. Liang, M. Hada, M. Ehara, K. Toyota, R. Fukuda, 
 J. Hasegawa, M. Ishida, T. Nakajima, Y. Honda, O. Kitao, H. Nakai, 
 T. Vreven, K. Throssell, J. A. Montgomery, Jr., J. E. Peralta, 
 F. Ogliaro, M. J. Bearpark, J. J. Heyd, E. N. Brothers, K. N. Kudin, 
 V. N. Staroverov, T. A. Keith, R. Kobayashi, J. Normand, 
 K. Raghavachari, A. P. Rendell, J. C. Burant, S. S. Iyengar, 
 J. Tomasi, M. Cossi, J. M. Millam, M. Klene, C. Adamo, R. Cammi, 
 J. W. Ochterski, R. L. Martin, K. Morokuma, O. Farkas, 
 J. B. Foresman, and D. J. Fox, Gaussian, Inc., Wallingford CT, 2016.
 
 ******************************************
 Gaussian 16:  EM64L-G16RevB.01 20-Dec-2017
                20-May-2019 
 ******************************************
 %mem=2GB
 %nproc=16
 Will use up to   16 processors via shared memory.
 ------------------
 #p td B3LYP/6-31G*
 ------------------
 1/38=1,172=1/1;
 2/12=2,17=6,18=5,40=1/2;
 3/5=1,6=6,7=1,11=9,25=1,30=1,74=-5/1,2,3,8;
 4//1;
 5/5=2,38=5/2;
 8/6=1,10=2/1;
 9/42=1,70=2/14;
 6/7=2,8=2,9=2,10=2/1;
 99/5=1,9=1/99;
 Leave Link    1 at Mon May 20 18:52:47 2019, MaxMem=   268435456 cpu:               0.9 elap:               0.1
 (Enter /usr/local/gaussian/gaussian16.b1-legacy/g16/l101.exe)
 --------------------------
 Scan step 6 E= -155.984591
 --------------------------
 Symbolic Z-matrix:
 Charge =  0 Multiplicity = 1
 C                     0.58981  -0.44155   0.25641 
 H                     1.54002   0.01618   0.53483 
 C                    -0.58981   0.44155   0.25641 
 H                    -1.54002  -0.01618   0.53483 
 C                    -0.58981   1.69484  -0.21143 
 H                     0.3249    2.18356  -0.54059 
 H                    -1.50175   2.28264  -0.26411 
 C                     0.58981  -1.69484  -0.21143 
 H                    -0.3249   -2.18356  -0.54059 
 H                     1.50175  -2.28264  -0.26411 
 
 ITRead=  0  0  0  0  0  0  0  0  0  0
 MicOpt= -1 -1 -1 -1 -1 -1 -1 -1 -1 -1
 NAtoms=     10 NQM=       10 NQMF=       0 NMMI=      0 NMMIF=      0
                NMic=       0 NMicF=      0.
                    Isotopes and Nuclear Properties:
 (Nuclear quadrupole moments (NQMom) in fm**2, nuclear magnetic moments (NMagM)
  in nuclear magnetons)

  Atom         1           2           3           4           5           6           7           8           9          10
 IAtWgt=          12           1          12           1          12           1           1          12           1           1
 AtmWgt=  12.0000000   1.0078250  12.0000000   1.0078250  12.0000000   1.0078250   1.0078250  12.0000000   1.0078250   1.0078250
 NucSpn=           0           1           0           1           0           1           1           0           1           1
 AtZEff=  -0.0000000  -0.0000000  -0.0000000  -0.0000000  -0.0000000  -0.0000000  -0.0000000  -0.0000000  -0.0000000  -0.0000000
 NQMom=    0.0000000   0.0000000   0.0000000   0.0000000   0.0000000   0.0000000   0.0000000   0.0000000   0.0000000   0.0000000
 NMagM=    0.0000000   2.7928460   0.0000000   2.7928460   0.0000000   2.7928460   2.7928460   0.0000000   2.7928460   2.7928460
 AtZNuc=   6.0000000   1.0000000   6.0000000   1.0000000   6.0000000   1.0000000   1.0000000   6.0000000   1.0000000   1.0000000
 Leave Link  101 at Mon May 20 18:52:47 2019, MaxMem=   268435456 cpu:               3.0 elap:               0.2
 (Enter /usr/local/gaussian/gaussian16.b1-legacy/g16/l202.exe)
                          Input orientation:                          
 ---------------------------------------------------------------------
 Center     Atomic      Atomic             Coordinates (Angstroms)
 Number     Number       Type             X           Y           Z
 ---------------------------------------------------------------------
      1          6           0        0.589813   -0.441550    0.256411
      2          1           0        1.540018    0.016180    0.534834
      3          6           0       -0.589813    0.441550    0.256411
      4          1           0       -1.540018   -0.016180    0.534834
      5          6           0       -0.589813    1.694838   -0.211433
      6          1           0        0.324901    2.183561   -0.540594
      7          1           0       -1.501749    2.282636   -0.264105
      8          6           0        0.589813   -1.694838   -0.211433
      9          1           0       -0.324901   -2.183561   -0.540594
     10          1           0        1.501749   -2.282636   -0.264105
 ---------------------------------------------------------------------
                    Distance matrix (angstroms):
                    1          2          3          4          5
     1  C    0.000000
     2  H    1.090837   0.000000
     3  C    1.473561   2.189666   0.000000
     4  H    2.189666   3.080206   1.090837   0.000000
     5  C    2.484864   2.812648   1.337763   2.094609   0.000000
     6  H    2.756194   2.707507   2.122857   3.077877   1.088071
     7  H    3.473724   3.876528   2.119472   2.433993   1.086236
     8  C    1.337763   2.094609   2.484864   2.812648   3.589070
     9  H    2.122857   3.077877   2.756194   2.707507   3.901346
    10  H    2.119472   2.433993   3.473724   3.876528   4.494186
                    6          7          8          9         10
     6  H    0.000000
     7  H    1.850111   0.000000
     8  C    3.901346   4.494186   0.000000
     9  H    4.415201   4.626914   1.088071   0.000000
    10  H    4.626914   5.464678   1.086236   1.850111   0.000000
 Stoichiometry    C4H6
 Framework group  C2[X(C4H6)]
 Deg. of freedom    13
 Full point group                 C2      NOp   2
 Largest Abelian subgroup         C2      NOp   2
 Largest concise Abelian subgroup C2      NOp   2
                         Standard orientation:                         
 ---------------------------------------------------------------------
 Center     Atomic      Atomic             Coordinates (Angstroms)
 Number     Number       Type             X           Y           Z
 ---------------------------------------------------------------------
      1          6           0        0.589813   -0.441550    0.256411
      2          1           0        1.540018    0.016180    0.534834
      3          6           0       -0.589813    0.441550    0.256411
      4          1           0       -1.540018   -0.016180    0.534834
      5          6           0       -0.589813    1.694838   -0.211433
      6          1           0        0.324901    2.183561   -0.540594
      7          1           0       -1.501749    2.282636   -0.264105
      8          6           0        0.589813   -1.694838   -0.211433
      9          1           0       -0.324901   -2.183561   -0.540594
     10          1           0        1.501749   -2.282636   -0.264105
 ---------------------------------------------------------------------
 Rotational constants (GHZ):          34.0752134           4.4707418           4.2125715
 Leave Link  202 at Mon May 20 18:52:47 2019, MaxMem=   268435456 cpu:               1.8 elap:               0.1
 (Enter /usr/local/gaussian/gaussian16.b1-legacy/g16/l301.exe)
 Standard basis: 6-31G(d) (6D, 7F)
 Ernie: Thresh=  0.10000D-02 Tol=  0.10000D-05 Strict=F.
 There are    36 symmetry adapted cartesian basis functions of A   symmetry.
 There are    36 symmetry adapted cartesian basis functions of B   symmetry.
 There are    36 symmetry adapted basis functions of A   symmetry.
 There are    36 symmetry adapted basis functions of B   symmetry.
    72 basis functions,   136 primitive gaussians,    72 cartesian basis functions
    15 alpha electrons       15 beta electrons
       nuclear repulsion energy       103.5348640523 Hartrees.
 IExCor=  402 DFT=T Ex+Corr=B3LYP ExCW=0 ScaHFX=  0.200000
 ScaDFX=  0.800000  0.720000  1.000000  0.810000 ScalE2=  1.000000  1.000000
 IRadAn=      5 IRanWt=     -1 IRanGd=            0 ICorTp=0 IEmpDi=  4
 NAtoms=   10 NActive=   10 NUniq=    5 SFac= 4.00D+00 NAtFMM=   60 NAOKFM=F Big=F
 Integral buffers will be    131072 words long.
 Regular integral format.
 Two-electron integral symmetry is turned on.
 Leave Link  301 at Mon May 20 18:52:47 2019, MaxMem=   268435456 cpu:               2.3 elap:               0.2
 (Enter /usr/local/gaussian/gaussian16.b1-legacy/g16/l302.exe)
 NPDir=0 NMtPBC=     1 NCelOv=     1 NCel=       1 NClECP=     1 NCelD=      1
         NCelK=      1 NCelE2=     1 NClLst=     1 CellRange=     0.0.
 One-electron integrals computed using PRISM.
 One-electron integral symmetry used in STVInt
 NBasis=    72 RedAO= T EigKep=  4.64D-03  NBF=    36    36
 NBsUse=    72 1.00D-06 EigRej= -1.00D+00 NBFU=    36    36
 Precomputing XC quadrature grid using
 IXCGrd= 4 IRadAn=           5 IRanWt=          -1 IRanGd=           0 AccXCQ= 0.00D+00.
 Generated NRdTot=       0 NPtTot=           0 NUsed=           0 NTot=          32
 NSgBfM=    72    72    72    72    72 MxSgAt=    10 MxSgA2=    10.
 Leave Link  302 at Mon May 20 18:52:48 2019, MaxMem=   268435456 cpu:              17.1 elap:               1.2
 (Enter /usr/local/gaussian/gaussian16.b1-legacy/g16/l303.exe)
 DipDrv:  MaxL=1.
 Leave Link  303 at Mon May 20 18:52:49 2019, MaxMem=   268435456 cpu:               2.6 elap:               0.2
 (Enter /usr/local/gaussian/gaussian16.b1-legacy/g16/l308.exe)
 Leave Link  308 at Mon May 20 18:52:49 2019, MaxMem=   268435456 cpu:               2.2 elap:               0.2
 (Enter /usr/local/gaussian/gaussian16.b1-legacy/g16/l401.exe)
 ExpMin= 1.61D-01 ExpMax= 3.05D+03 ExpMxC= 4.57D+02 IAcc=3 IRadAn=         5 AccDes= 0.00D+00
 Harris functional with IExCor=  402 and IRadAn=       5 diagonalized for initial guess.
 HarFok:  IExCor=  402 AccDes= 0.00D+00 IRadAn=         5 IDoV= 1 UseB2=F ITyADJ=14
 ICtDFT=  3500011 ScaDFX=  1.000000  1.000000  1.000000  1.000000
 FoFCou: FMM=F IPFlag=           0 FMFlag=      100000 FMFlg1=           0
         NFxFlg=           0 DoJE=T BraDBF=F KetDBF=T FulRan=T
         wScrn=  0.000000 ICntrl=       500 IOpCl=  0 I1Cent=   200000004 NGrid=           0
         NMat0=    1 NMatS0=      1 NMatT0=    0 NMatD0=    1 NMtDS0=    0 NMtDT0=    0
 Petite list used in FoFCou.
 Harris En= -156.030189630386    
 JPrj=0 DoOrth=F DoCkMO=F.
 Initial guess orbital symmetries:
       Occupied  (B) (A) (A) (B) (A) (B) (A) (B) (B) (A) (A) (B)
                 (A) (A) (B)
       Virtual   (A) (B) (B) (A) (B) (A) (B) (A) (B) (A) (B) (B)
                 (A) (A) (B) (A) (B) (A) (B) (A) (B) (A) (B) (A)
                 (B) (B) (A) (A) (B) (A) (B) (B) (A) (B) (A) (A)
                 (B) (A) (A) (A) (B) (B) (B) (A) (B) (A) (B) (A)
                 (B) (A) (B) (A) (B) (A) (B) (A) (B)
 The electronic state of the initial guess is 1-A.
 Leave Link  401 at Mon May 20 18:52:50 2019, MaxMem=   268435456 cpu:              19.1 elap:               1.3
 (Enter /usr/local/gaussian/gaussian16.b1-legacy/g16/l502.exe)
 Keep R1 ints in memory in symmetry-blocked form, NReq=17821408.
 FoFCou: FMM=F IPFlag=           0 FMFlag=           0 FMFlg1=           0
         NFxFlg=           0 DoJE=F BraDBF=F KetDBF=F FulRan=T
         wScrn=  0.000000 ICntrl=       600 IOpCl=  0 I1Cent=           0 NGrid=           0
         NMat0=    1 NMatS0=   2628 NMatT0=    0 NMatD0=    1 NMtDS0=    0 NMtDT0=    0
 Petite list used in FoFCou.
 Closed shell SCF:
 Using DIIS extrapolation, IDIIS=  1040.
 NGot=   268435456 LenX=   266688778 LenY=   266683153
 Requested convergence on RMS density matrix=1.00D-08 within 128 cycles.
 Requested convergence on MAX density matrix=1.00D-06.
 Requested convergence on             energy=1.00D-06.
 No special actions if energy rises.
 Integral accuracy reduced to 1.0D-05 until final iterations.

 Cycle   1  Pass 0  IDiag  1:
 E= -155.847482904476    
 DIIS: error= 4.61D-02 at cycle   1 NSaved=   1.
 NSaved= 1 IEnMin= 1 EnMin= -155.847482904476     IErMin= 1 ErrMin= 4.61D-02
 ErrMax= 4.61D-02  0.00D+00 EMaxC= 1.00D-01 BMatC= 1.19D-01 BMatP= 1.19D-01
 IDIUse=3 WtCom= 5.39D-01 WtEn= 4.61D-01
 Coeff-Com:  0.100D+01
 Coeff-En:   0.100D+01
 Coeff:      0.100D+01
 Gap=     0.214 Goal=   None    Shift=    0.000
 GapD=    0.214 DampG=1.000 DampE=0.500 DampFc=0.5000 IDamp=-1.
 Damping current iteration by 5.00D-01
 RMSDP=1.00D-02 MaxDP=1.23D-01              OVMax= 1.48D-01

 Cycle   2  Pass 0  IDiag  1:
 E= -155.915592385976     Delta-E=       -0.068109481500 Rises=F Damp=T
 DIIS: error= 7.15D-03 at cycle   2 NSaved=   2.
 NSaved= 2 IEnMin= 2 EnMin= -155.915592385976     IErMin= 2 ErrMin= 7.15D-03
 ErrMax= 7.15D-03  0.00D+00 EMaxC= 1.00D-01 BMatC= 3.67D-03 BMatP= 1.19D-01
 IDIUse=3 WtCom= 9.28D-01 WtEn= 7.15D-02
 Coeff-Com: -0.141D-01 0.101D+01
 Coeff-En:   0.000D+00 0.100D+01
 Coeff:     -0.131D-01 0.101D+01
 Gap=     0.221 Goal=   None    Shift=    0.000
 RMSDP=1.52D-03 MaxDP=1.15D-02 DE=-6.81D-02 OVMax= 7.72D-02

 Cycle   3  Pass 0  IDiag  1:
 E= -155.984353031701     Delta-E=       -0.068760645726 Rises=F Damp=F
 DIIS: error= 2.07D-03 at cycle   3 NSaved=   3.
 NSaved= 3 IEnMin= 3 EnMin= -155.984353031701     IErMin= 3 ErrMin= 2.07D-03
 ErrMax= 2.07D-03  0.00D+00 EMaxC= 1.00D-01 BMatC= 2.14D-04 BMatP= 3.67D-03
 IDIUse=3 WtCom= 9.79D-01 WtEn= 2.07D-02
 Coeff-Com: -0.172D-01 0.118D+00 0.900D+00
 Coeff-En:   0.000D+00 0.000D+00 0.100D+01
 Coeff:     -0.169D-01 0.115D+00 0.902D+00
 Gap=     0.218 Goal=   None    Shift=    0.000
 RMSDP=4.47D-04 MaxDP=4.85D-03 DE=-6.88D-02 OVMax= 1.22D-02

 Cycle   4  Pass 0  IDiag  1:
 E= -155.984262333002     Delta-E=        0.000090698699 Rises=F Damp=F
 DIIS: error= 2.13D-03 at cycle   4 NSaved=   4.
 NSaved= 4 IEnMin= 3 EnMin= -155.984353031701     IErMin= 3 ErrMin= 2.07D-03
 ErrMax= 2.13D-03  0.00D+00 EMaxC= 1.00D-01 BMatC= 3.12D-04 BMatP= 2.14D-04
 IDIUse=3 WtCom= 1.78D-01 WtEn= 8.22D-01
 Coeff-Com: -0.105D-01 0.447D-01 0.568D+00 0.397D+00
 Coeff-En:   0.000D+00 0.000D+00 0.575D+00 0.425D+00
 Coeff:     -0.186D-02 0.796D-02 0.574D+00 0.420D+00
 Gap=     0.218 Goal=   None    Shift=    0.000
 RMSDP=2.30D-04 MaxDP=3.49D-03 DE= 9.07D-05 OVMax= 8.38D-03

 Cycle   5  Pass 0  IDiag  1:
 E= -155.984567168912     Delta-E=       -0.000304835910 Rises=F Damp=F
 DIIS: error= 4.11D-04 at cycle   5 NSaved=   5.
 NSaved= 5 IEnMin= 5 EnMin= -155.984567168912     IErMin= 5 ErrMin= 4.11D-04
 ErrMax= 4.11D-04  0.00D+00 EMaxC= 1.00D-01 BMatC= 2.08D-05 BMatP= 2.14D-04
 IDIUse=3 WtCom= 9.96D-01 WtEn= 4.11D-03
 Coeff-Com:  0.276D-02-0.521D-02 0.175D+00 0.200D+00 0.627D+00
 Coeff-En:   0.000D+00 0.000D+00 0.000D+00 0.000D+00 0.100D+01
 Coeff:      0.275D-02-0.519D-02 0.174D+00 0.200D+00 0.629D+00
 Gap=     0.218 Goal=   None    Shift=    0.000
 RMSDP=6.02D-05 MaxDP=8.12D-04 DE=-3.05D-04 OVMax= 1.36D-03

 Cycle   6  Pass 0  IDiag  1:
 E= -155.984588068669     Delta-E=       -0.000020899757 Rises=F Damp=F
 DIIS: error= 2.74D-05 at cycle   6 NSaved=   6.
 NSaved= 6 IEnMin= 6 EnMin= -155.984588068669     IErMin= 6 ErrMin= 2.74D-05
 ErrMax= 2.74D-05  0.00D+00 EMaxC= 1.00D-01 BMatC= 4.48D-08 BMatP= 2.08D-05
 IDIUse=1 WtCom= 1.00D+00 WtEn= 0.00D+00
 Coeff-Com:  0.922D-03-0.225D-02 0.246D-01 0.309D-01 0.135D+00 0.811D+00
 Coeff:      0.922D-03-0.225D-02 0.246D-01 0.309D-01 0.135D+00 0.811D+00
 Gap=     0.218 Goal=   None    Shift=    0.000
 RMSDP=4.90D-06 MaxDP=3.98D-05 DE=-2.09D-05 OVMax= 1.08D-04

 Initial convergence to 1.0D-05 achieved.  Increase integral accuracy.
 Cycle   7  Pass 1  IDiag  1:
 E= -155.984590677265     Delta-E=       -0.000002608596 Rises=F Damp=F
 DIIS: error= 3.86D-06 at cycle   1 NSaved=   1.
 NSaved= 1 IEnMin= 1 EnMin= -155.984590677265     IErMin= 1 ErrMin= 3.86D-06
 ErrMax= 3.86D-06  0.00D+00 EMaxC= 1.00D-01 BMatC= 1.37D-09 BMatP= 1.37D-09
 IDIUse=1 WtCom= 1.00D+00 WtEn= 0.00D+00
 Coeff-Com:  0.100D+01
 Coeff:      0.100D+01
 Gap=     0.218 Goal=   None    Shift=    0.000
 RMSDP=4.90D-06 MaxDP=3.98D-05 DE=-2.61D-06 OVMax= 2.95D-05

 Cycle   8  Pass 1  IDiag  1:
 E= -155.984590677786     Delta-E=       -0.000000000521 Rises=F Damp=F
 DIIS: error= 3.92D-06 at cycle   2 NSaved=   2.
 NSaved= 2 IEnMin= 2 EnMin= -155.984590677786     IErMin= 1 ErrMin= 3.86D-06
 ErrMax= 3.92D-06  0.00D+00 EMaxC= 1.00D-01 BMatC= 1.17D-09 BMatP= 1.37D-09
 IDIUse=1 WtCom= 1.00D+00 WtEn= 0.00D+00
 Coeff-Com:  0.477D+00 0.523D+00
 Coeff:      0.477D+00 0.523D+00
 Gap=     0.218 Goal=   None    Shift=    0.000
 RMSDP=6.25D-07 MaxDP=8.76D-06 DE=-5.21D-10 OVMax= 1.99D-05

 Cycle   9  Pass 1  IDiag  1:
 E= -155.984590678759     Delta-E=       -0.000000000972 Rises=F Damp=F
 DIIS: error= 2.02D-06 at cycle   3 NSaved=   3.
 NSaved= 3 IEnMin= 3 EnMin= -155.984590678759     IErMin= 3 ErrMin= 2.02D-06
 ErrMax= 2.02D-06  0.00D+00 EMaxC= 1.00D-01 BMatC= 3.00D-10 BMatP= 1.17D-09
 IDIUse=1 WtCom= 1.00D+00 WtEn= 0.00D+00
 Coeff-Com:  0.169D+00 0.336D+00 0.495D+00
 Coeff:      0.169D+00 0.336D+00 0.495D+00
 Gap=     0.218 Goal=   None    Shift=    0.000
 RMSDP=2.11D-07 MaxDP=3.34D-06 DE=-9.72D-10 OVMax= 7.70D-06

 Cycle  10  Pass 1  IDiag  1:
 E= -155.984590679057     Delta-E=       -0.000000000298 Rises=F Damp=F
 DIIS: error= 2.36D-07 at cycle   4 NSaved=   4.
 NSaved= 4 IEnMin= 4 EnMin= -155.984590679057     IErMin= 4 ErrMin= 2.36D-07
 ErrMax= 2.36D-07  0.00D+00 EMaxC= 1.00D-01 BMatC= 5.26D-12 BMatP= 3.00D-10
 IDIUse=1 WtCom= 1.00D+00 WtEn= 0.00D+00
 Coeff-Com:  0.252D-02 0.532D-01 0.152D+00 0.792D+00
 Coeff:      0.252D-02 0.532D-01 0.152D+00 0.792D+00
 Gap=     0.218 Goal=   None    Shift=    0.000
 RMSDP=4.99D-08 MaxDP=4.13D-07 DE=-2.98D-10 OVMax= 1.14D-06

 Cycle  11  Pass 1  IDiag  1:
 E= -155.984590679060     Delta-E=       -0.000000000003 Rises=F Damp=F
 DIIS: error= 7.60D-08 at cycle   5 NSaved=   5.
 NSaved= 5 IEnMin= 5 EnMin= -155.984590679060     IErMin= 5 ErrMin= 7.60D-08
 ErrMax= 7.60D-08  0.00D+00 EMaxC= 1.00D-01 BMatC= 5.83D-13 BMatP= 5.26D-12
 IDIUse=1 WtCom= 1.00D+00 WtEn= 0.00D+00
 Coeff-Com: -0.686D-02 0.767D-02 0.361D-01 0.342D+00 0.621D+00
 Coeff:     -0.686D-02 0.767D-02 0.361D-01 0.342D+00 0.621D+00
 Gap=     0.218 Goal=   None    Shift=    0.000
 RMSDP=1.34D-08 MaxDP=1.34D-07 DE=-3.18D-12 OVMax= 2.04D-07

 Cycle  12  Pass 1  IDiag  1:
 E= -155.984590679062     Delta-E=       -0.000000000002 Rises=F Damp=F
 DIIS: error= 1.14D-08 at cycle   6 NSaved=   6.
 NSaved= 6 IEnMin= 6 EnMin= -155.984590679062     IErMin= 6 ErrMin= 1.14D-08
 ErrMax= 1.14D-08  0.00D+00 EMaxC= 1.00D-01 BMatC= 9.94D-15 BMatP= 5.83D-13
 IDIUse=1 WtCom= 1.00D+00 WtEn= 0.00D+00
 Coeff-Com: -0.193D-02 0.172D-03 0.192D-02 0.606D-01 0.168D+00 0.771D+00
 Coeff:     -0.193D-02 0.172D-03 0.192D-02 0.606D-01 0.168D+00 0.771D+00
 Gap=     0.218 Goal=   None    Shift=    0.000
 RMSDP=1.62D-09 MaxDP=1.86D-08 DE=-1.93D-12 OVMax= 3.29D-08

 SCF Done:  E(RB3LYP) =  -155.984590679     A.U. after   12 cycles
            NFock= 12  Conv=0.16D-08     -V/T= 2.0103
 KE= 1.543944112087D+02 PE=-5.675191002106D+02 EE= 1.536052342705D+02
 Leave Link  502 at Mon May 20 18:53:01 2019, MaxMem=   268435456 cpu:             159.1 elap:              10.7
 (Enter /usr/local/gaussian/gaussian16.b1-legacy/g16/l801.exe)
 DoSCS=F DFT=T ScalE2(SS,OS)=  1.000000  1.000000
 ExpMin= 1.61D-01 ExpMax= 3.05D+03 ExpMxC= 4.57D+02 IAcc=3 IRadAn=         5 AccDes= 0.00D+00
 HarFok:  IExCor=  205 AccDes= 0.00D+00 IRadAn=         5 IDoV=-2 UseB2=F ITyADJ=14
 ICtDFT= 12500011 ScaDFX=  1.000000  1.000000  1.000000  1.000000
 Largest valence mixing into a core orbital is  5.39D-05
 Largest core mixing into a valence orbital is  1.16D-05
 Range of M.O.s used for correlation:     5    72
 NBasis=    72 NAE=    15 NBE=    15 NFC=     4 NFV=     0
 NROrb=     68 NOA=    11 NOB=    11 NVA=    57 NVB=    57
 Leave Link  801 at Mon May 20 18:53:01 2019, MaxMem=   268435456 cpu:               5.4 elap:               0.4
 (Enter /usr/local/gaussian/gaussian16.b1-legacy/g16/l914.exe)
 RHF ground state
 Keep R1, R2, and R3 ints in memory in symmetry-blocked form, NReq=23896504.
 FoFCou: FMM=F IPFlag=           0 FMFlag=           0 FMFlg1=           0
         NFxFlg=           0 DoJE=F BraDBF=F KetDBF=F FulRan=T
         wScrn=  0.000000 ICntrl=       600 IOpCl=  0 I1Cent=           0 NGrid=           0
         NMat0=    1 NMatS0=   2628 NMatT0=    0 NMatD0=    1 NMtDS0=    0 NMtDT0=    0
 Petite list used in FoFCou.
 MDV=   268435456 DFT=T DoStab=F Mixed=T DoRPA=T DoScal=F NonHer=T
 Making orbital integer symmetry assigments:
 Orbital symmetries:
       Occupied  (A) (B) (A) (B) (A) (B) (A) (B) (A) (B) (A) (B)
                 (A) (A) (B)
       Virtual   (A) (B) (B) (A) (B) (A) (B) (A) (B) (A) (B) (B)
                 (A) (A) (B) (B) (A) (B) (A) (A) (B) (A) (B) (A)
                 (B) (A) (B) (A) (B) (A) (B) (B) (A) (A) (B) (A)
                 (B) (A) (A) (A) (B) (B) (B) (A) (B) (A) (B) (A)
                 (B) (A) (B) (A) (B) (A) (B) (A) (B)
    12 initial guesses have been made.
 Convergence on wavefunction:    0.001000000000000
 Davidson Disk Diagonalization:  ConvIn= 1.00D-03 SkipCon=T Conv= 1.00D-03.
 Max sub-space:  2000 roots to seek:    12 dimension of matrix:         1254
 Iteration     1 Dimension    12 NMult     0 NNew     12
 CISAX will form    12 AO SS matrices at one time.
 NMat=    12 NSing=    12 JSym2X=-1.
 New state      3 was old state      4
 Excitation Energies [eV] at current iteration:
 Root      1 :     6.563715508631214
 Root      2 :     6.653135464189424
 Root      3 :     7.579945142567318
 Root      4 :     8.424630646599518
 Root      5 :     8.684260205596800
 Root      6 :     8.791911127953513
 Root      7 :     8.900292472727317
 Root      8 :     9.227979695889850
 Root      9 :     9.417796871179453
 Root     10 :     9.832346498999707
 Root     11 :    10.291627503328550
 Root     12 :    10.554818724524150
 Iteration     2 Dimension    18 NMult    12 NNew      6
 CISAX will form     6 AO SS matrices at one time.
 NMat=     6 NSing=     6 JSym2X=-1.
 Root      1 not converged, maximum delta is    0.057966141166704
 Root      2 not converged, maximum delta is    0.009680514070434
 Root      3 not converged, maximum delta is    0.047669449913860
 Excitation Energies [eV] at current iteration:
 Root      1 :     6.032048391094673   Change is   -0.531667117536541
 Root      2 :     6.627499297446754   Change is   -0.025636166742671
 Root      3 :     7.513080185884058   Change is   -0.066864956683261
 Iteration     3 Dimension    24 NMult    18 NNew      6
 CISAX will form     6 AO SS matrices at one time.
 NMat=     6 NSing=     6 JSym2X=-1.
 Root      1 not converged, maximum delta is    0.032199696155290
 Root      2 not converged, maximum delta is    0.003668956830616
 Root      3 not converged, maximum delta is    0.012034427352042
 Excitation Energies [eV] at current iteration:
 Root      1 :     5.981311556305941   Change is   -0.050736834788732
 Root      2 :     6.626098531844857   Change is   -0.001400765601897
 Root      3 :     7.506522256646020   Change is   -0.006557929238037
 Iteration     4 Dimension    30 NMult    24 NNew      6
 CISAX will form     6 AO SS matrices at one time.
 NMat=     6 NSing=     6 JSym2X=-1.
 Root      1 not converged, maximum delta is    0.002981439177841
 Root      2 not converged, maximum delta is    0.001145933532959
 Root      3 not converged, maximum delta is    0.008122043658531
 Excitation Energies [eV] at current iteration:
 Root      1 :     5.979021869489102   Change is   -0.002289686816839
 Root      2 :     6.625987198351680   Change is   -0.000111333493177
 Root      3 :     7.505657133343878   Change is   -0.000865123302142
 Iteration     5 Dimension    36 NMult    30 NNew      6
 CISAX will form     6 AO SS matrices at one time.
 NMat=     6 NSing=     6 JSym2X=-1.
 Root      1 not converged, maximum delta is    0.001030497541958
 Root      2 has converged.
 Root      3 not converged, maximum delta is    0.002931227430967
 Excitation Energies [eV] at current iteration:
 Root      1 :     5.978912419733867   Change is   -0.000109449755235
 Root      2 :     6.625980775078892   Change is   -0.000006423272788
 Root      3 :     7.505544520531928   Change is   -0.000112612811950
 Iteration     6 Dimension    40 NMult    36 NNew      4
 CISAX will form     4 AO SS matrices at one time.
 NMat=     4 NSing=     4 JSym2X=-1.
 Root      1 has converged.
 Root      2 has converged.
 Root      3 has converged.
 Excitation Energies [eV] at current iteration:
 Root      1 :     5.978907002837926   Change is   -0.000005416895941
 Root      2 :     6.625980735762394   Change is   -0.000000039316498
 Root      3 :     7.505537773599581   Change is   -0.000006746932347
 Convergence achieved on expansion vectors.
 ***********************************************************************
 Excited states from <AA,BB:AA,BB> singles matrix:
 ***********************************************************************
 
 1PDM for each excited state written to RWF  633
 Ground to excited state transition densities written to RWF  633
 Ground to excited state transition electric dipole moments (Au):
       state          X           Y           Z        Dip. S.      Osc.
         1         0.4623     -1.6389      0.0000      2.8996      0.4247
         2         0.0000     -0.0000      0.0050      0.0000      0.0000
         3         0.0000     -0.0000     -0.0609      0.0037      0.0007
 Ground to excited state transition velocity dipole moments (Au):
       state          X           Y           Z        Dip. S.      Osc.
         1        -0.1007      0.3653     -0.0000      0.1436      0.4358
         2        -0.0000      0.0000      0.0176      0.0003      0.0008
         3        -0.0000     -0.0000      0.0362      0.0013      0.0032
 Ground to excited state transition magnetic dipole moments (Au):
       state          X           Y           Z
         1        -0.0154     -0.2670     -0.0000
         2        -0.0000     -0.0000      0.0468
         3         0.0000     -0.0000      0.5031
 Ground to excited state transition velocity quadrupole moments (Au):
       state          XX          YY          ZZ          XY          XZ          YZ
         1        -0.0000      0.0000     -0.0000     -0.0000      0.0749     -0.1776
         2        -0.0174      0.0588      0.0197     -0.0539      0.0000     -0.0000
         3         0.1379     -0.3214     -0.0159      0.2241      0.0000     -0.0000
 <0|del|b> * <b|rxdel|0> + <0|del|b> * <b|delr+rdel|0>
 Rotatory Strengths (R) in cgs (10**-40 erg-esu-cm/Gauss)
       state          XX          YY          ZZ    R(velocity)    E-M Angle
         1      -200.9932     31.2797   -139.2296   -102.9810      161.28
         2        -0.1802      2.5660     -0.0000      0.7953       90.00
         3        33.7002     12.9269     -0.0000     15.5424       90.00
 1/2[<0|r|b>*<b|rxdel|0> + (<0|rxdel|b>*<b|r|0>)*]
 Rotatory Strengths (R) in cgs (10**-40 erg-esu-cm/Gauss)
       state          XX          YY          ZZ     R(length)
         1         5.0392   -309.4313      0.0000   -101.4640
         2         0.0000     -0.0000     -0.1661     -0.0554
         3        -0.0000     -0.0000     21.6545      7.2182
  1/2[<0|del|b>*<b|r|0> + (<0|r|b>*<b|del|0>)*] (Au)
       state          X           Y           Z        Dip. S.   Osc.(frdel)
         1        -0.0466     -0.5988     -0.0000      0.6453      0.4302
         2        -0.0000     -0.0000      0.0001     -0.0001     -0.0001
         3        -0.0000      0.0000     -0.0022      0.0022      0.0015

 Excitation energies and oscillator strengths:
 
 Excited State   1:      Singlet-B      5.9789 eV  207.37 nm  f=0.4247  <S**2>=0.000
      14 -> 17        -0.12713
      15 -> 16         0.69499
 This state for optimization and/or second-order correction.
 Total Energy, E(TD-HF/TD-DFT) =  -155.764869890    
 Copying the excited state density for this state as the 1-particle RhoCI density.
 
 Excited State   2:      Singlet-A      6.6260 eV  187.12 nm  f=0.0000  <S**2>=0.000
      14 -> 16         0.51827
      15 -> 17        -0.47774
 
 Excited State   3:      Singlet-A      7.5055 eV  165.19 nm  f=0.0007  <S**2>=0.000
      13 -> 16         0.68643
      15 -> 17        -0.13435
 SavETr:  write IOETrn=   770 NScale= 10 NData=  16 NLR=1 NState=    3 LETran=      64.
 Leave Link  914 at Mon May 20 18:53:12 2019, MaxMem=   268435456 cpu:             155.4 elap:              10.4
 (Enter /usr/local/gaussian/gaussian16.b1-legacy/g16/l601.exe)
 Copying SCF densities to generalized density rwf, IOpCl= 0 IROHF=0.

 **********************************************************************

            Population analysis using the SCF Density.

 **********************************************************************

 Orbital symmetries:
       Occupied  (A) (B) (A) (B) (A) (B) (A) (B) (A) (B) (A) (B)
                 (A) (A) (B)
       Virtual   (A) (B) (B) (A) (B) (A) (B) (A) (B) (A) (B) (B)
                 (A) (A) (B) (B) (A) (B) (A) (A) (B) (A) (B) (A)
                 (B) (A) (B) (A) (B) (A) (B) (B) (A) (A) (B) (A)
                 (B) (A) (A) (A) (B) (B) (B) (A) (B) (A) (B) (A)
                 (B) (A) (B) (A) (B) (A) (B) (A) (B)
 The electronic state is 1-A.
 Alpha  occ. eigenvalues --  -10.19247 -10.19216 -10.18254 -10.18254  -0.79914
 Alpha  occ. eigenvalues --   -0.72855  -0.60228  -0.54636  -0.46085  -0.45886
 Alpha  occ. eigenvalues --   -0.40381  -0.38510  -0.34172  -0.29901  -0.23378
 Alpha virt. eigenvalues --   -0.01548   0.05722   0.12677   0.13306   0.14054
 Alpha virt. eigenvalues --    0.16626   0.18595   0.21592   0.31880   0.33994
 Alpha virt. eigenvalues --    0.37193   0.48833   0.51837   0.53734   0.59337
 Alpha virt. eigenvalues --    0.60497   0.60574   0.65556   0.65644   0.69282
 Alpha virt. eigenvalues --    0.69322   0.84745   0.85972   0.86520   0.88885
 Alpha virt. eigenvalues --    0.92462   0.92930   0.94562   0.96191   1.11667
 Alpha virt. eigenvalues --    1.13157   1.17732   1.29385   1.48332   1.48353
 Alpha virt. eigenvalues --    1.55442   1.67101   1.77076   1.81592   1.91385
 Alpha virt. eigenvalues --    1.94253   1.98866   2.10579   2.16503   2.18045
 Alpha virt. eigenvalues --    2.28922   2.30871   2.37671   2.54572   2.64773
 Alpha virt. eigenvalues --    2.70473   2.91429   2.91835   4.09320   4.12919
 Alpha virt. eigenvalues --    4.24022   4.42508
          Condensed to atoms (all electrons):
               1          2          3          4          5          6
     1  C    4.784550   0.367471   0.436855  -0.049799  -0.037392  -0.009076
     2  H    0.367471   0.595362  -0.049799   0.004952  -0.005001   0.003853
     3  C    0.436855  -0.049799   4.784550   0.367471   0.651637  -0.038520
     4  H   -0.049799   0.004952   0.367471   0.595362  -0.048722   0.005874
     5  C   -0.037392  -0.005001   0.651637  -0.048722   5.035800   0.370884
     6  H   -0.009076   0.003853  -0.038520   0.005874   0.370884   0.567340
     7  H    0.004348  -0.000098  -0.021826  -0.007793   0.364246  -0.041927
     8  C    0.651637  -0.048722  -0.037392  -0.005001  -0.000643   0.000331
     9  H   -0.038520   0.005874  -0.009076   0.003853   0.000331   0.000032
    10  H   -0.021826  -0.007793   0.004348  -0.000098  -0.000130  -0.000013
               7          8          9         10
     1  C    0.004348   0.651637  -0.038520  -0.021826
     2  H   -0.000098  -0.048722   0.005874  -0.007793
     3  C   -0.021826  -0.037392  -0.009076   0.004348
     4  H   -0.007793  -0.005001   0.003853  -0.000098
     5  C    0.364246  -0.000643   0.000331  -0.000130
     6  H   -0.041927   0.000331   0.000032  -0.000013
     7  H    0.559051  -0.000130  -0.000013   0.000003
     8  C   -0.000130   5.035800   0.370884   0.364246
     9  H   -0.000013   0.370884   0.567340  -0.041927
    10  H    0.000003   0.364246  -0.041927   0.559051
 Mulliken charges:
               1
     1  C   -0.088248
     2  H    0.133900
     3  C   -0.088248
     4  H    0.133900
     5  C   -0.331011
     6  H    0.141221
     7  H    0.144138
     8  C   -0.331011
     9  H    0.141221
    10  H    0.144138
 Sum of Mulliken charges =   0.00000
 Mulliken charges with hydrogens summed into heavy atoms:
               1
     1  C    0.045652
     3  C    0.045652
     5  C   -0.045652
     8  C   -0.045652
 Electronic spatial extent (au):  <R**2>=            330.2408
 Charge=              0.0000 electrons
 Dipole moment (field-independent basis, Debye):
    X=             -0.0000    Y=              0.0000    Z=             -0.0573  Tot=              0.0573
 Quadrupole moment (field-independent basis, Debye-Ang):
   XX=            -22.7729   YY=            -23.3614   ZZ=            -27.2335
   XY=             -0.1293   XZ=              0.0000   YZ=             -0.0000
 Traceless Quadrupole moment (field-independent basis, Debye-Ang):
   XX=              1.6830   YY=              1.0945   ZZ=             -2.7775
   XY=             -0.1293   XZ=              0.0000   YZ=             -0.0000
 Octapole moment (field-independent basis, Debye-Ang**2):
  XXX=             -0.0000  YYY=              0.0000  ZZZ=              0.1438  XYY=             -0.0000
  XXY=              0.0000  XXZ=              0.9033  XZZ=              0.0000  YZZ=             -0.0000
  YYZ=             -3.8565  XYZ=              0.1471
 Hexadecapole moment (field-independent basis, Debye-Ang**3):
 XXXX=           -101.6610 YYYY=           -293.4745 ZZZZ=            -41.6528 XXXY=             45.7738
 XXXZ=              0.0000 YYYX=             45.5031 YYYZ=             -0.0000 ZZZX=             -0.0000
 ZZZY=              0.0000 XXYY=            -60.4843 XXZZ=            -25.8987 YYZZ=            -61.3097
 XXYZ=             -0.0000 YYXZ=              0.0000 ZZXY=             19.3798
 N-N= 1.035348640523D+02 E-N=-5.675191010259D+02  KE= 1.543944112087D+02
 Symmetry A    KE= 7.860425327890D+01
 Symmetry B    KE= 7.579015792982D+01
 Leave Link  601 at Mon May 20 18:53:12 2019, MaxMem=   268435456 cpu:               5.8 elap:               0.4
 (Enter /usr/local/gaussian/gaussian16.b1-legacy/g16/l9999.exe)
 Electronic transition elements 
                 1             2             3 
      1  -0.155765D+03 -0.155741D+03 -0.155709D+03
      2   0.462270D+00  0.000000D+00  0.000000D+00
      3  -0.163888D+01  0.000000D+00  0.000000D+00
      4   0.000000D+00  0.502030D-02 -0.608706D-01
      5  -0.100721D+00  0.000000D+00  0.000000D+00
      6   0.365344D+00  0.000000D+00  0.000000D+00
      7   0.000000D+00  0.175583D-01  0.361517D-01
      8  -0.154151D-01  0.000000D+00  0.000000D+00
      9  -0.266990D+00  0.000000D+00  0.000000D+00
     10   0.000000D+00  0.467883D-01  0.503061D+00
     11   0.000000D+00 -0.174445D-01  0.137878D+00
     12   0.000000D+00  0.587758D-01 -0.321386D+00
     13   0.000000D+00  0.196528D-01 -0.158602D-01
     14   0.000000D+00 -0.538546D-01  0.224123D+00
     15   0.748788D-01  0.000000D+00  0.000000D+00
     16  -0.177570D+00  0.000000D+00  0.000000D+00
 1\1\GINC-BRAOJOS\SP\RB3LYP TD-FC\6-31G(d)\C4H6\ROOT\20-May-2019\0\\#p 
 td B3LYP/6-31G*\\Scan step 6 E= -155.984591\\0,1\C,0,0.589813,-0.44155
 ,0.256411\H,0,1.540018,0.01618,0.534834\C,0,-0.589813,0.44155,0.256411
 \H,0,-1.540018,-0.01618,0.534834\C,0,-0.589813,1.694838,-0.211433\H,0,
 0.324901,2.183561,-0.540594\H,0,-1.501749,2.282636,-0.264105\C,0,0.589
 813,-1.694838,-0.211433\H,0,-0.324901,-2.183561,-0.540594\H,0,1.501749
 ,-2.282636,-0.264105\\Version=EM64L-G16RevB.01\State=1-A\HF=-155.98459
 07\RMSD=1.624e-09\PG=C02 [X(C4H6)]\\@


 Ideas are like rabbits. You get a couple and learn
 how to handle them, and pretty soon you have a dozen.
                                    -- John Steinbeck
 Job cpu time:       0 days  0 hours  6 minutes 17.0 seconds.
 Elapsed time:       0 days  0 hours  0 minutes 25.5 seconds.
 File lengths (MBytes):  RWF=     83 Int=      0 D2E=      0 Chk=      2 Scr=      1
 Normal termination of Gaussian 16 at Mon May 20 18:53:12 2019.
