 Entering Gaussian System, Link 0=g16
 Initial command:
 /usr/local/gaussian/gaussian16.b1-legacy/g16/l1.exe "/scratch/sonatak/Gau-19815.inp" -scrdir="/scratch/sonatak/"
 Entering Link 1 = /usr/local/gaussian/gaussian16.b1-legacy/g16/l1.exe PID=     19816.
  
 Copyright (c) 1988-2017, Gaussian, Inc.  All Rights Reserved.
  
 This is part of the Gaussian(R) 16 program.  It is based on
 the Gaussian(R) 09 system (copyright 2009, Gaussian, Inc.),
 the Gaussian(R) 03 system (copyright 2003, Gaussian, Inc.),
 the Gaussian(R) 98 system (copyright 1998, Gaussian, Inc.),
 the Gaussian(R) 94 system (copyright 1995, Gaussian, Inc.),
 the Gaussian 92(TM) system (copyright 1992, Gaussian, Inc.),
 the Gaussian 90(TM) system (copyright 1990, Gaussian, Inc.),
 the Gaussian 88(TM) system (copyright 1988, Gaussian, Inc.),
 the Gaussian 86(TM) system (copyright 1986, Carnegie Mellon
 University), and the Gaussian 82(TM) system (copyright 1983,
 Carnegie Mellon University). Gaussian is a federally registered
 trademark of Gaussian, Inc.
  
 This software contains proprietary and confidential information,
 including trade secrets, belonging to Gaussian, Inc.
  
 This software is provided under written license and may be
 used, copied, transmitted, or stored only in accord with that
 written license.
  
 The following legend is applicable only to US Government
 contracts under FAR:
  
                    RESTRICTED RIGHTS LEGEND
  
 Use, reproduction and disclosure by the US Government is
 subject to restrictions as set forth in subparagraphs (a)
 and (c) of the Commercial Computer Software - Restricted
 Rights clause in FAR 52.227-19.
  
 Gaussian, Inc.
 340 Quinnipiac St., Bldg. 40, Wallingford CT 06492
  
  
 ---------------------------------------------------------------
 Warning -- This program may not be used in any manner that
 competes with the business of Gaussian, Inc. or will provide
 assistance to any competitor of Gaussian, Inc.  The licensee
 of this program is prohibited from giving any competitor of
 Gaussian, Inc. access to this program.  By using this program,
 the user acknowledges that Gaussian, Inc. is engaged in the
 business of creating and licensing software in the field of
 computational chemistry and represents and warrants to the
 licensee that it is not a competitor of Gaussian, Inc. and that
 it will not use this program in any manner prohibited above.
 ---------------------------------------------------------------
  

 Cite this work as:
 Gaussian 16, Revision B.01,
 M. J. Frisch, G. W. Trucks, H. B. Schlegel, G. E. Scuseria, 
 M. A. Robb, J. R. Cheeseman, G. Scalmani, V. Barone, 
 G. A. Petersson, H. Nakatsuji, X. Li, M. Caricato, A. V. Marenich, 
 J. Bloino, B. G. Janesko, R. Gomperts, B. Mennucci, H. P. Hratchian, 
 J. V. Ortiz, A. F. Izmaylov, J. L. Sonnenberg, D. Williams-Young, 
 F. Ding, F. Lipparini, F. Egidi, J. Goings, B. Peng, A. Petrone, 
 T. Henderson, D. Ranasinghe, V. G. Zakrzewski, J. Gao, N. Rega, 
 G. Zheng, W. Liang, M. Hada, M. Ehara, K. Toyota, R. Fukuda, 
 J. Hasegawa, M. Ishida, T. Nakajima, Y. Honda, O. Kitao, H. Nakai, 
 T. Vreven, K. Throssell, J. A. Montgomery, Jr., J. E. Peralta, 
 F. Ogliaro, M. J. Bearpark, J. J. Heyd, E. N. Brothers, K. N. Kudin, 
 V. N. Staroverov, T. A. Keith, R. Kobayashi, J. Normand, 
 K. Raghavachari, A. P. Rendell, J. C. Burant, S. S. Iyengar, 
 J. Tomasi, M. Cossi, J. M. Millam, M. Klene, C. Adamo, R. Cammi, 
 J. W. Ochterski, R. L. Martin, K. Morokuma, O. Farkas, 
 J. B. Foresman, and D. J. Fox, Gaussian, Inc., Wallingford CT, 2016.
 
 ******************************************
 Gaussian 16:  EM64L-G16RevB.01 20-Dec-2017
                20-May-2019 
 ******************************************
 %mem=2GB
 %nproc=16
 Will use up to   16 processors via shared memory.
 ------------------
 #p td B3LYP/6-31G*
 ------------------
 1/38=1,172=1/1;
 2/12=2,17=6,18=5,40=1/2;
 3/5=1,6=6,7=1,11=9,25=1,30=1,74=-5/1,2,3,8;
 4//1;
 5/5=2,38=5/2;
 8/6=1,10=2/1;
 9/42=1,70=2/14;
 6/7=2,8=2,9=2,10=2/1;
 99/5=1,9=1/99;
 Leave Link    1 at Mon May 20 18:35:43 2019, MaxMem=   268435456 cpu:               2.5 elap:               0.2
 (Enter /usr/local/gaussian/gaussian16.b1-legacy/g16/l101.exe)
 ------------------------
 Scan step 10 E= 0.011614
 ------------------------
 Symbolic Z-matrix:
 Charge =  0 Multiplicity = 1
 C                     0.67074   0.415    -0.28425 
 H                     0.85368   1.12818  -1.08799 
 C                    -0.67078   0.41499   0.28427 
 H                    -0.85507   1.13163   1.08462 
 C                    -1.67213  -0.36854  -0.14194 
 H                    -1.53084  -1.0844   -0.94899 
 H                    -2.66173  -0.32629   0.30336 
 C                     1.67229  -0.36813   0.14226 
 H                     1.53182  -1.08203   0.95118 
 H                     2.66142  -0.32701  -0.30419 
 
 ITRead=  0  0  0  0  0  0  0  0  0  0
 MicOpt= -1 -1 -1 -1 -1 -1 -1 -1 -1 -1
 NAtoms=     10 NQM=       10 NQMF=       0 NMMI=      0 NMMIF=      0
                NMic=       0 NMicF=      0.
                    Isotopes and Nuclear Properties:
 (Nuclear quadrupole moments (NQMom) in fm**2, nuclear magnetic moments (NMagM)
  in nuclear magnetons)

  Atom         1           2           3           4           5           6           7           8           9          10
 IAtWgt=          12           1          12           1          12           1           1          12           1           1
 AtmWgt=  12.0000000   1.0078250  12.0000000   1.0078250  12.0000000   1.0078250   1.0078250  12.0000000   1.0078250   1.0078250
 NucSpn=           0           1           0           1           0           1           1           0           1           1
 AtZEff=  -0.0000000  -0.0000000  -0.0000000  -0.0000000  -0.0000000  -0.0000000  -0.0000000  -0.0000000  -0.0000000  -0.0000000
 NQMom=    0.0000000   0.0000000   0.0000000   0.0000000   0.0000000   0.0000000   0.0000000   0.0000000   0.0000000   0.0000000
 NMagM=    0.0000000   2.7928460   0.0000000   2.7928460   0.0000000   2.7928460   2.7928460   0.0000000   2.7928460   2.7928460
 AtZNuc=   6.0000000   1.0000000   6.0000000   1.0000000   6.0000000   1.0000000   1.0000000   6.0000000   1.0000000   1.0000000
 Leave Link  101 at Mon May 20 18:35:44 2019, MaxMem=   268435456 cpu:               4.6 elap:               0.5
 (Enter /usr/local/gaussian/gaussian16.b1-legacy/g16/l202.exe)
                          Input orientation:                          
 ---------------------------------------------------------------------
 Center     Atomic      Atomic             Coordinates (Angstroms)
 Number     Number       Type             X           Y           Z
 ---------------------------------------------------------------------
      1          6           0        0.670739    0.414996   -0.284249
      2          1           0        0.853678    1.128182   -1.087991
      3          6           0       -0.670775    0.414991    0.284270
      4          1           0       -0.855069    1.131627    1.084618
      5          6           0       -1.672127   -0.368540   -0.141944
      6          1           0       -1.530844   -1.084402   -0.948991
      7          1           0       -2.661733   -0.326293    0.303357
      8          6           0        1.672285   -0.368126    0.142258
      9          1           0        1.531819   -1.082027    0.951184
     10          1           0        2.661422   -0.327009   -0.304186
 ---------------------------------------------------------------------
                    Distance matrix (angstroms):
                    1          2          3          4          5
     1  C    0.000000
     2  H    1.090001   0.000000
     3  C    1.457008   2.171566   0.000000
     4  H    2.171508   2.764065   1.089995   0.000000
     5  C    2.474510   3.084619   1.341002   2.102983   0.000000
     6  H    2.745368   3.255886   2.123401   3.082697   1.088000
     7  H    3.464125   4.050859   2.124566   2.449476   1.086001
     8  C    1.341001   2.102990   2.474544   3.086231   3.356466
     9  H    2.123401   3.082715   2.745407   3.258113   3.459662
    10  H    2.124568   2.449463   3.464157   4.052420   4.336784
                    6          7          8          9         10
     6  H    0.000000
     7  H    1.849869   0.000000
     8  C    3.458889   4.337213   0.000000
     9  H    3.604244   4.310069   1.088001   0.000000
    10  H    4.308655   5.357713   1.085999   1.849867   0.000000
 Stoichiometry    C4H6
 Framework group  C1[X(C4H6)]
 Deg. of freedom    24
 Full point group                 C1      NOp   1
 Largest Abelian subgroup         C1      NOp   1
 Largest concise Abelian subgroup C1      NOp   1
                         Standard orientation:                         
 ---------------------------------------------------------------------
 Center     Atomic      Atomic             Coordinates (Angstroms)
 Number     Number       Type             X           Y           Z
 ---------------------------------------------------------------------
      1          6           0       -0.670739    0.414996    0.284249
      2          1           0       -0.853678    1.128182    1.087991
      3          6           0        0.670775    0.414991   -0.284270
      4          1           0        0.855069    1.131627   -1.084618
      5          6           0        1.672127   -0.368540    0.141944
      6          1           0        1.530844   -1.084402    0.948991
      7          1           0        2.661733   -0.326293   -0.303357
      8          6           0       -1.672285   -0.368126   -0.142258
      9          1           0       -1.531819   -1.082027   -0.951184
     10          1           0       -2.661422   -0.327009    0.304186
 ---------------------------------------------------------------------
 Rotational constants (GHZ):          26.1290315           4.8042887           4.5560062
 Leave Link  202 at Mon May 20 18:35:44 2019, MaxMem=   268435456 cpu:               1.5 elap:               0.2
 (Enter /usr/local/gaussian/gaussian16.b1-legacy/g16/l301.exe)
 Standard basis: 6-31G(d) (6D, 7F)
 Ernie: Thresh=  0.10000D-02 Tol=  0.10000D-05 Strict=F.
 There are    72 symmetry adapted cartesian basis functions of A   symmetry.
 There are    72 symmetry adapted basis functions of A   symmetry.
    72 basis functions,   136 primitive gaussians,    72 cartesian basis functions
    15 alpha electrons       15 beta electrons
       nuclear repulsion energy       104.1133485464 Hartrees.
 IExCor=  402 DFT=T Ex+Corr=B3LYP ExCW=0 ScaHFX=  0.200000
 ScaDFX=  0.800000  0.720000  1.000000  0.810000 ScalE2=  1.000000  1.000000
 IRadAn=      5 IRanWt=     -1 IRanGd=            0 ICorTp=0 IEmpDi=  4
 NAtoms=   10 NActive=   10 NUniq=   10 SFac= 1.00D+00 NAtFMM=   60 NAOKFM=F Big=F
 Integral buffers will be    131072 words long.
 Regular integral format.
 Two-electron integral symmetry is turned on.
 Leave Link  301 at Mon May 20 18:35:45 2019, MaxMem=   268435456 cpu:               3.2 elap:               0.4
 (Enter /usr/local/gaussian/gaussian16.b1-legacy/g16/l302.exe)
 NPDir=0 NMtPBC=     1 NCelOv=     1 NCel=       1 NClECP=     1 NCelD=      1
         NCelK=      1 NCelE2=     1 NClLst=     1 CellRange=     0.0.
 One-electron integrals computed using PRISM.
 One-electron integral symmetry used in STVInt
 NBasis=    72 RedAO= T EigKep=  4.64D-03  NBF=    72
 NBsUse=    72 1.00D-06 EigRej= -1.00D+00 NBFU=    72
 Precomputing XC quadrature grid using
 IXCGrd= 4 IRadAn=           5 IRanWt=          -1 IRanGd=           0 AccXCQ= 0.00D+00.
 Generated NRdTot=       0 NPtTot=           0 NUsed=           0 NTot=          32
 NSgBfM=    72    72    72    72    72 MxSgAt=    10 MxSgA2=    10.
 Leave Link  302 at Mon May 20 18:35:46 2019, MaxMem=   268435456 cpu:              10.8 elap:               1.1
 (Enter /usr/local/gaussian/gaussian16.b1-legacy/g16/l303.exe)
 DipDrv:  MaxL=1.
 Leave Link  303 at Mon May 20 18:35:46 2019, MaxMem=   268435456 cpu:               3.3 elap:               0.4
 (Enter /usr/local/gaussian/gaussian16.b1-legacy/g16/l308.exe)
 Leave Link  308 at Mon May 20 18:35:46 2019, MaxMem=   268435456 cpu:               2.4 elap:               0.3
 (Enter /usr/local/gaussian/gaussian16.b1-legacy/g16/l401.exe)
 ExpMin= 1.61D-01 ExpMax= 3.05D+03 ExpMxC= 4.57D+02 IAcc=3 IRadAn=         5 AccDes= 0.00D+00
 Harris functional with IExCor=  402 and IRadAn=       5 diagonalized for initial guess.
 HarFok:  IExCor=  402 AccDes= 0.00D+00 IRadAn=         5 IDoV= 1 UseB2=F ITyADJ=14
 ICtDFT=  3500011 ScaDFX=  1.000000  1.000000  1.000000  1.000000
 FoFCou: FMM=F IPFlag=           0 FMFlag=      100000 FMFlg1=           0
         NFxFlg=           0 DoJE=T BraDBF=F KetDBF=T FulRan=T
         wScrn=  0.000000 ICntrl=       500 IOpCl=  0 I1Cent=   200000004 NGrid=           0
         NMat0=    1 NMatS0=      1 NMatT0=    0 NMatD0=    1 NMtDS0=    0 NMtDT0=    0
 Petite list used in FoFCou.
 Harris En= -156.026048975323    
 JPrj=0 DoOrth=F DoCkMO=F.
 Leave Link  401 at Mon May 20 18:35:48 2019, MaxMem=   268435456 cpu:              19.8 elap:               1.9
 (Enter /usr/local/gaussian/gaussian16.b1-legacy/g16/l502.exe)
 Keep R1 ints in memory in canonical form, NReq=17815476.
 FoFCou: FMM=F IPFlag=           0 FMFlag=           0 FMFlg1=           0
         NFxFlg=           0 DoJE=F BraDBF=F KetDBF=F FulRan=T
         wScrn=  0.000000 ICntrl=       600 IOpCl=  0 I1Cent=           0 NGrid=           0
         NMat0=    1 NMatS0=   2628 NMatT0=    0 NMatD0=    1 NMtDS0=    0 NMtDT0=    0
 Symmetry not used in FoFCou.
 Two-electron integral symmetry not used.
 Closed shell SCF:
 Using DIIS extrapolation, IDIIS=  1040.
 NGot=   268435456 LenX=   264968442 LenY=   264962817
 Requested convergence on RMS density matrix=1.00D-08 within 128 cycles.
 Requested convergence on MAX density matrix=1.00D-06.
 Requested convergence on             energy=1.00D-06.
 No special actions if energy rises.
 Integral accuracy reduced to 1.0D-05 until final iterations.

 Cycle   1  Pass 0  IDiag  1:
 E= -155.841326222011    
 DIIS: error= 3.65D-02 at cycle   1 NSaved=   1.
 NSaved= 1 IEnMin= 1 EnMin= -155.841326222011     IErMin= 1 ErrMin= 3.65D-02
 ErrMax= 3.65D-02  0.00D+00 EMaxC= 1.00D-01 BMatC= 1.20D-01 BMatP= 1.20D-01
 IDIUse=3 WtCom= 6.35D-01 WtEn= 3.65D-01
 Coeff-Com:  0.100D+01
 Coeff-En:   0.100D+01
 Coeff:      0.100D+01
 Gap=     0.265 Goal=   None    Shift=    0.000
 GapD=    0.265 DampG=1.000 DampE=0.500 DampFc=0.5000 IDamp=-1.
 Damping current iteration by 5.00D-01
 RMSDP=1.01D-02 MaxDP=1.06D-01              OVMax= 1.51D-01

 Cycle   2  Pass 0  IDiag  1:
 E= -155.909674776042     Delta-E=       -0.068348554031 Rises=F Damp=T
 DIIS: error= 8.77D-03 at cycle   2 NSaved=   2.
 NSaved= 2 IEnMin= 2 EnMin= -155.909674776042     IErMin= 2 ErrMin= 8.77D-03
 ErrMax= 8.77D-03  0.00D+00 EMaxC= 1.00D-01 BMatC= 3.78D-03 BMatP= 1.20D-01
 IDIUse=3 WtCom= 9.12D-01 WtEn= 8.77D-02
 Coeff-Com: -0.695D-02 0.101D+01
 Coeff-En:   0.000D+00 0.100D+01
 Coeff:     -0.634D-02 0.101D+01
 Gap=     0.275 Goal=   None    Shift=    0.000
 RMSDP=1.48D-03 MaxDP=1.29D-02 DE=-6.83D-02 OVMax= 7.97D-02

 Cycle   3  Pass 0  IDiag  1:
 E= -155.979688223702     Delta-E=       -0.070013447661 Rises=F Damp=F
 DIIS: error= 1.65D-03 at cycle   3 NSaved=   3.
 NSaved= 3 IEnMin= 3 EnMin= -155.979688223702     IErMin= 3 ErrMin= 1.65D-03
 ErrMax= 1.65D-03  0.00D+00 EMaxC= 1.00D-01 BMatC= 1.64D-04 BMatP= 3.78D-03
 IDIUse=3 WtCom= 9.84D-01 WtEn= 1.65D-02
 Coeff-Com: -0.184D-01 0.109D+00 0.909D+00
 Coeff-En:   0.000D+00 0.000D+00 0.100D+01
 Coeff:     -0.181D-01 0.108D+00 0.910D+00
 Gap=     0.269 Goal=   None    Shift=    0.000
 RMSDP=3.14D-04 MaxDP=2.57D-03 DE=-7.00D-02 OVMax= 4.50D-03

 Cycle   4  Pass 0  IDiag  1:
 E= -155.979838811985     Delta-E=       -0.000150588283 Rises=F Damp=F
 DIIS: error= 5.40D-04 at cycle   4 NSaved=   4.
 NSaved= 4 IEnMin= 4 EnMin= -155.979838811985     IErMin= 4 ErrMin= 5.40D-04
 ErrMax= 5.40D-04  0.00D+00 EMaxC= 1.00D-01 BMatC= 2.06D-05 BMatP= 1.64D-04
 IDIUse=3 WtCom= 9.95D-01 WtEn= 5.40D-03
 Coeff-Com: -0.516D-02 0.153D-01 0.294D+00 0.696D+00
 Coeff-En:   0.000D+00 0.000D+00 0.000D+00 0.100D+01
 Coeff:     -0.514D-02 0.152D-01 0.292D+00 0.698D+00
 Gap=     0.269 Goal=   None    Shift=    0.000
 RMSDP=9.54D-05 MaxDP=7.92D-04 DE=-1.51D-04 OVMax= 1.62D-03

 Cycle   5  Pass 0  IDiag  1:
 E= -155.979854499458     Delta-E=       -0.000015687473 Rises=F Damp=F
 DIIS: error= 1.75D-04 at cycle   5 NSaved=   5.
 NSaved= 5 IEnMin= 5 EnMin= -155.979854499458     IErMin= 5 ErrMin= 1.75D-04
 ErrMax= 1.75D-04  0.00D+00 EMaxC= 1.00D-01 BMatC= 4.72D-06 BMatP= 2.06D-05
 IDIUse=3 WtCom= 9.98D-01 WtEn= 1.75D-03
 Coeff-Com: -0.254D-02 0.563D-02 0.155D+00 0.428D+00 0.414D+00
 Coeff-En:   0.000D+00 0.000D+00 0.000D+00 0.572D-01 0.943D+00
 Coeff:     -0.254D-02 0.562D-02 0.155D+00 0.427D+00 0.414D+00
 Gap=     0.269 Goal=   None    Shift=    0.000
 RMSDP=2.89D-05 MaxDP=3.87D-04 DE=-1.57D-05 OVMax= 1.06D-03

 Cycle   6  Pass 0  IDiag  1:
 E= -155.979858978634     Delta-E=       -0.000004479176 Rises=F Damp=F
 DIIS: error= 5.08D-05 at cycle   6 NSaved=   6.
 NSaved= 6 IEnMin= 6 EnMin= -155.979858978634     IErMin= 6 ErrMin= 5.08D-05
 ErrMax= 5.08D-05  0.00D+00 EMaxC= 1.00D-01 BMatC= 2.54D-07 BMatP= 4.72D-06
 IDIUse=1 WtCom= 1.00D+00 WtEn= 0.00D+00
 Coeff-Com: -0.299D-03 0.321D-04 0.235D-01 0.850D-01 0.214D+00 0.678D+00
 Coeff:     -0.299D-03 0.321D-04 0.235D-01 0.850D-01 0.214D+00 0.678D+00
 Gap=     0.269 Goal=   None    Shift=    0.000
 RMSDP=8.47D-06 MaxDP=7.25D-05 DE=-4.48D-06 OVMax= 2.52D-04

 Initial convergence to 1.0D-05 achieved.  Increase integral accuracy.
 Cycle   7  Pass 1  IDiag  1:
 E= -155.979858125208     Delta-E=        0.000000853427 Rises=F Damp=F
 DIIS: error= 4.96D-06 at cycle   1 NSaved=   1.
 NSaved= 1 IEnMin= 1 EnMin= -155.979858125208     IErMin= 1 ErrMin= 4.96D-06
 ErrMax= 4.96D-06  0.00D+00 EMaxC= 1.00D-01 BMatC= 2.32D-09 BMatP= 2.32D-09
 IDIUse=1 WtCom= 1.00D+00 WtEn= 0.00D+00
 Coeff-Com:  0.100D+01
 Coeff:      0.100D+01
 Gap=     0.269 Goal=   None    Shift=    0.000
 RMSDP=8.47D-06 MaxDP=7.25D-05 DE= 8.53D-07 OVMax= 5.70D-05

 Cycle   8  Pass 1  IDiag  1:
 E= -155.979858119757     Delta-E=        0.000000005451 Rises=F Damp=F
 DIIS: error= 7.52D-06 at cycle   2 NSaved=   2.
 NSaved= 2 IEnMin= 1 EnMin= -155.979858125208     IErMin= 1 ErrMin= 4.96D-06
 ErrMax= 7.52D-06  0.00D+00 EMaxC= 1.00D-01 BMatC= 7.53D-09 BMatP= 2.32D-09
 IDIUse=1 WtCom= 1.00D+00 WtEn= 0.00D+00
 Coeff-Com:  0.651D+00 0.349D+00
 Coeff:      0.651D+00 0.349D+00
 Gap=     0.269 Goal=   None    Shift=    0.000
 RMSDP=1.11D-06 MaxDP=1.35D-05 DE= 5.45D-09 OVMax= 3.98D-05

 Cycle   9  Pass 1  IDiag  1:
 E= -155.979858127843     Delta-E=       -0.000000008086 Rises=F Damp=F
 DIIS: error= 7.86D-07 at cycle   3 NSaved=   3.
 NSaved= 3 IEnMin= 3 EnMin= -155.979858127843     IErMin= 3 ErrMin= 7.86D-07
 ErrMax= 7.86D-07  0.00D+00 EMaxC= 1.00D-01 BMatC= 9.47D-11 BMatP= 2.32D-09
 IDIUse=1 WtCom= 1.00D+00 WtEn= 0.00D+00
 Coeff-Com:  0.185D+00 0.144D+00 0.671D+00
 Coeff:      0.185D+00 0.144D+00 0.671D+00
 Gap=     0.269 Goal=   None    Shift=    0.000
 RMSDP=1.46D-07 MaxDP=1.65D-06 DE=-8.09D-09 OVMax= 2.55D-06

 Cycle  10  Pass 1  IDiag  1:
 E= -155.979858127931     Delta-E=       -0.000000000087 Rises=F Damp=F
 DIIS: error= 1.44D-07 at cycle   4 NSaved=   4.
 NSaved= 4 IEnMin= 4 EnMin= -155.979858127931     IErMin= 4 ErrMin= 1.44D-07
 ErrMax= 1.44D-07  0.00D+00 EMaxC= 1.00D-01 BMatC= 1.78D-12 BMatP= 9.47D-11
 IDIUse=1 WtCom= 1.00D+00 WtEn= 0.00D+00
 Coeff-Com:  0.230D-01 0.286D-01 0.157D+00 0.791D+00
 Coeff:      0.230D-01 0.286D-01 0.157D+00 0.791D+00
 Gap=     0.269 Goal=   None    Shift=    0.000
 RMSDP=2.87D-08 MaxDP=2.60D-07 DE=-8.74D-11 OVMax= 4.50D-07

 Cycle  11  Pass 1  IDiag  1:
 E= -155.979858127933     Delta-E=       -0.000000000002 Rises=F Damp=F
 DIIS: error= 4.99D-08 at cycle   5 NSaved=   5.
 NSaved= 5 IEnMin= 5 EnMin= -155.979858127933     IErMin= 5 ErrMin= 4.99D-08
 ErrMax= 4.99D-08  0.00D+00 EMaxC= 1.00D-01 BMatC= 4.55D-13 BMatP= 1.78D-12
 IDIUse=1 WtCom= 1.00D+00 WtEn= 0.00D+00
 Coeff-Com: -0.291D-02 0.434D-02 0.219D-01 0.361D+00 0.615D+00
 Coeff:     -0.291D-02 0.434D-02 0.219D-01 0.361D+00 0.615D+00
 Gap=     0.269 Goal=   None    Shift=    0.000
 RMSDP=1.10D-08 MaxDP=1.57D-07 DE=-2.27D-12 OVMax= 3.01D-07

 Cycle  12  Pass 1  IDiag  1:
 E= -155.979858127932     Delta-E=        0.000000000000 Rises=F Damp=F
 DIIS: error= 2.41D-08 at cycle   6 NSaved=   6.
 NSaved= 6 IEnMin= 5 EnMin= -155.979858127933     IErMin= 6 ErrMin= 2.41D-08
 ErrMax= 2.41D-08  0.00D+00 EMaxC= 1.00D-01 BMatC= 6.64D-14 BMatP= 4.55D-13
 IDIUse=1 WtCom= 1.00D+00 WtEn= 0.00D+00
 Coeff-Com: -0.386D-02 0.179D-03-0.265D-02 0.130D+00 0.345D+00 0.531D+00
 Coeff:     -0.386D-02 0.179D-03-0.265D-02 0.130D+00 0.345D+00 0.531D+00
 Gap=     0.269 Goal=   None    Shift=    0.000
 RMSDP=3.63D-09 MaxDP=4.56D-08 DE= 4.55D-13 OVMax= 1.26D-07

 SCF Done:  E(RB3LYP) =  -155.979858128     A.U. after   12 cycles
            NFock= 12  Conv=0.36D-08     -V/T= 2.0101
 KE= 1.544151667394D+02 PE=-5.687187603257D+02 EE= 1.542103869120D+02
 Leave Link  502 at Mon May 20 18:35:59 2019, MaxMem=   268435456 cpu:             119.8 elap:              11.2
 (Enter /usr/local/gaussian/gaussian16.b1-legacy/g16/l801.exe)
 DoSCS=F DFT=T ScalE2(SS,OS)=  1.000000  1.000000
 ExpMin= 1.61D-01 ExpMax= 3.05D+03 ExpMxC= 4.57D+02 IAcc=3 IRadAn=         5 AccDes= 0.00D+00
 HarFok:  IExCor=  205 AccDes= 0.00D+00 IRadAn=         5 IDoV=-2 UseB2=F ITyADJ=14
 ICtDFT= 12500011 ScaDFX=  1.000000  1.000000  1.000000  1.000000
 Largest valence mixing into a core orbital is  5.35D-05
 Largest core mixing into a valence orbital is  1.18D-05
 Range of M.O.s used for correlation:     5    72
 NBasis=    72 NAE=    15 NBE=    15 NFC=     4 NFV=     0
 NROrb=     68 NOA=    11 NOB=    11 NVA=    57 NVB=    57
 Leave Link  801 at Mon May 20 18:36:00 2019, MaxMem=   268435456 cpu:              11.2 elap:               1.1
 (Enter /usr/local/gaussian/gaussian16.b1-legacy/g16/l914.exe)
 RHF ground state
 Keep R1, R2, and R3 ints in memory in canonical form, NReq=29069388.
 FoFCou: FMM=F IPFlag=           0 FMFlag=           0 FMFlg1=           0
         NFxFlg=           0 DoJE=F BraDBF=F KetDBF=F FulRan=T
         wScrn=  0.000000 ICntrl=       600 IOpCl=  0 I1Cent=           0 NGrid=           0
         NMat0=    1 NMatS0=   2628 NMatT0=    0 NMatD0=    1 NMtDS0=    0 NMtDT0=    0
 Symmetry not used in FoFCou.
 Two-electron integral symmetry not used.
 MDV=   268435456 DFT=T DoStab=F Mixed=T DoRPA=T DoScal=F NonHer=T
 Making orbital integer symmetry assigments:
 Orbital symmetries:
       Occupied  (A) (A) (A) (A) (A) (A) (A) (A) (A) (A) (A) (A)
                 (A) (A) (A)
       Virtual   (A) (A) (A) (A) (A) (A) (A) (A) (A) (A) (A) (A)
                 (A) (A) (A) (A) (A) (A) (A) (A) (A) (A) (A) (A)
                 (A) (A) (A) (A) (A) (A) (A) (A) (A) (A) (A) (A)
                 (A) (A) (A) (A) (A) (A) (A) (A) (A) (A) (A) (A)
                 (A) (A) (A) (A) (A) (A) (A) (A) (A)
    12 initial guesses have been made.
 Convergence on wavefunction:    0.001000000000000
 Davidson Disk Diagonalization:  ConvIn= 1.00D-03 SkipCon=T Conv= 1.00D-03.
 Max sub-space:  2000 roots to seek:    12 dimension of matrix:         1254
 Iteration     1 Dimension    12 NMult     0 NNew     12
 CISAX will form    12 AO SS matrices at one time.
 NMat=    12 NSing=    12 JSym2X= 0.
 New state      3 was old state      5
 Excitation Energies [eV] at current iteration:
 Root      1 :     6.203207904285357
 Root      2 :     6.260493779412684
 Root      3 :     8.267506830569644
 Root      4 :     8.304652094544590
 Root      5 :     8.890753574883270
 Root      6 :     8.966650588434094
 Root      7 :     9.414599517979298
 Root      8 :     9.450588990700414
 Root      9 :     9.656546624710717
 Root     10 :     9.751405393794069
 Root     11 :    10.270193605250470
 Root     12 :    10.665423873890290
 Iteration     2 Dimension    18 NMult    12 NNew      6
 CISAX will form     6 AO SS matrices at one time.
 NMat=     6 NSing=     6 JSym2X= 0.
 Root      1 not converged, maximum delta is    0.011409316483152
 Root      2 not converged, maximum delta is    0.018936282216412
 Root      3 not converged, maximum delta is    0.134258251903797
 Excitation Energies [eV] at current iteration:
 Root      1 :     6.187300386194871   Change is   -0.015907518090485
 Root      2 :     6.229035389240500   Change is   -0.031458390172185
 Root      3 :     8.152426790121016   Change is   -0.115080040448628
 Iteration     3 Dimension    24 NMult    18 NNew      6
 CISAX will form     6 AO SS matrices at one time.
 NMat=     6 NSing=     6 JSym2X= 0.
 Root      1 not converged, maximum delta is    0.003002342018548
 Root      2 not converged, maximum delta is    0.005002066197932
 Root      3 not converged, maximum delta is    0.433147974913902
 Excitation Energies [eV] at current iteration:
 Root      1 :     6.186459264679145   Change is   -0.000841121515726
 Root      2 :     6.226919417922228   Change is   -0.002115971318271
 Root      3 :     7.872570622928770   Change is   -0.279856167192246
 Iteration     4 Dimension    30 NMult    24 NNew      6
 CISAX will form     6 AO SS matrices at one time.
 NMat=     6 NSing=     6 JSym2X= 0.
 Root      1 has converged.
 Root      2 not converged, maximum delta is    0.001835764293294
 Root      3 not converged, maximum delta is    0.067632319193372
 Excitation Energies [eV] at current iteration:
 Root      1 :     6.186394300039368   Change is   -0.000064964639778
 Root      2 :     6.226623991868180   Change is   -0.000295426054048
 Root      3 :     7.795658427130172   Change is   -0.076912195798598
 Iteration     5 Dimension    34 NMult    30 NNew      4
 CISAX will form     4 AO SS matrices at one time.
 NMat=     4 NSing=     4 JSym2X= 0.
 Root      1 has converged.
 Root      2 has converged.
 Root      3 not converged, maximum delta is    0.003487231605102
 Excitation Energies [eV] at current iteration:
 Root      1 :     6.186393749232985   Change is   -0.000000550806382
 Root      2 :     6.226613410491500   Change is   -0.000010581376680
 Root      3 :     7.792139415649003   Change is   -0.003519011481169
 Iteration     6 Dimension    36 NMult    34 NNew      2
 CISAX will form     2 AO SS matrices at one time.
 NMat=     2 NSing=     2 JSym2X= 0.
 Root      1 has converged.
 Root      2 has converged.
 Root      3 not converged, maximum delta is    0.006410578611574
 Excitation Energies [eV] at current iteration:
 Root      1 :     6.186393667114870   Change is   -0.000000082118115
 Root      2 :     6.226613408337403   Change is   -0.000000002154097
 Root      3 :     7.791814584641853   Change is   -0.000324831007150
 Iteration     7 Dimension    38 NMult    36 NNew      2
 CISAX will form     2 AO SS matrices at one time.
 NMat=     2 NSing=     2 JSym2X= 0.
 Root      1 has converged.
 Root      2 has converged.
 Root      3 not converged, maximum delta is    0.401283067823465
 Excitation Energies [eV] at current iteration:
 Root      1 :     6.186393660494038   Change is   -0.000000006620832
 Root      2 :     6.226613392280461   Change is   -0.000000016056941
 Root      3 :     7.766602811083835   Change is   -0.025211773558017
 Iteration     8 Dimension    40 NMult    38 NNew      2
 CISAX will form     2 AO SS matrices at one time.
 NMat=     2 NSing=     2 JSym2X= 0.
 Root      1 has converged.
 Root      2 has converged.
 Root      3 not converged, maximum delta is    0.046320394722168
 Excitation Energies [eV] at current iteration:
 Root      1 :     6.186393570727375   Change is   -0.000000089766663
 Root      2 :     6.226613335225588   Change is   -0.000000057054873
 Root      3 :     7.735222023959046   Change is   -0.031380787124790
 Iteration     9 Dimension    42 NMult    40 NNew      2
 CISAX will form     2 AO SS matrices at one time.
 NMat=     2 NSing=     2 JSym2X= 0.
 Root      1 has converged.
 Root      2 has converged.
 Root      3 not converged, maximum delta is    0.003307664004878
 Excitation Energies [eV] at current iteration:
 Root      1 :     6.186393397202161   Change is   -0.000000173525214
 Root      2 :     6.226613333427037   Change is   -0.000000001798551
 Root      3 :     7.733182099603605   Change is   -0.002039924355441
 Iteration    10 Dimension    44 NMult    42 NNew      2
 CISAX will form     2 AO SS matrices at one time.
 NMat=     2 NSing=     2 JSym2X= 0.
 Root      1 has converged.
 Root      2 has converged.
 Root      3 has converged.
 Excitation Energies [eV] at current iteration:
 Root      1 :     6.186393368367455   Change is   -0.000000028834705
 Root      2 :     6.226613324167205   Change is   -0.000000009259831
 Root      3 :     7.733033245920312   Change is   -0.000148853683292
 Convergence achieved on expansion vectors.
 ***********************************************************************
 Excited states from <AA,BB:AA,BB> singles matrix:
 ***********************************************************************
 
 1PDM for each excited state written to RWF  633
 Ground to excited state transition densities written to RWF  633
 Ground to excited state transition electric dipole moments (Au):
       state          X           Y           Z        Dip. S.      Osc.
         1        -0.0003     -0.0386     -0.0005      0.0015      0.0002
         2        -0.0122      0.0008     -0.0287      0.0010      0.0001
         3         1.7437     -0.0096      0.3469      3.1609      0.5989
 Ground to excited state transition velocity dipole moments (Au):
       state          X           Y           Z        Dip. S.      Osc.
         1         0.0003     -0.0050      0.0002      0.0000      0.0001
         2         0.0155      0.0000      0.0101      0.0003      0.0010
         3        -0.4947      0.0027     -0.0942      0.2537      0.5951
 Ground to excited state transition magnetic dipole moments (Au):
       state          X           Y           Z
         1        -0.0071      0.0767      0.0022
         2        -0.4359     -0.0019      0.1573
         3        -0.0782      0.0052      0.6075
 Ground to excited state transition velocity quadrupole moments (Au):
       state          XX          YY          ZZ          XY          XZ          YZ
         1        -0.1261     -0.0478      0.0579     -0.0004     -0.0581     -0.0000
         2         0.0021      0.0007     -0.0011     -0.0216      0.0011     -0.0008
         3        -0.0121      0.0004      0.0026      0.5514     -0.0045      0.1358
 <0|del|b> * <b|rxdel|0> + <0|del|b> * <b|delr+rdel|0>
 Rotatory Strengths (R) in cgs (10**-40 erg-esu-cm/Gauss)
       state          XX          YY          ZZ    R(velocity)    E-M Angle
         1        -1.0410     -0.0022     -0.1467     -0.3966       90.00
         2         2.1217     -7.6638    -10.4239     -5.3220      127.02
         3      -135.8694    -42.0310    131.6957    -15.4016       93.45
 1/2[<0|r|b>*<b|rxdel|0> + (<0|rxdel|b>*<b|r|0>)*]
 Rotatory Strengths (R) in cgs (10**-40 erg-esu-cm/Gauss)
       state          XX          YY          ZZ     R(length)
         1        -0.0014      2.0949      0.0008      0.6981
         2        -3.7469      0.0010      3.1909     -0.1850
         3        96.3942      0.0355   -149.0239    -17.5314
  1/2[<0|del|b>*<b|r|0> + (<0|r|b>*<b|del|0>)*] (Au)
       state          X           Y           Z        Dip. S.   Osc.(frdel)
         1        -0.0000      0.0002     -0.0000     -0.0002     -0.0001
         2        -0.0002      0.0000     -0.0003      0.0005      0.0003
         3        -0.8627     -0.0000     -0.0327      0.8954      0.5969

 Excitation energies and oscillator strengths:
 
 Excited State   1:      Singlet-A      6.1864 eV  200.41 nm  f=0.0002  <S**2>=0.000
      14 -> 17         0.46402
      15 -> 16         0.53261
 This state for optimization and/or second-order correction.
 Total Energy, E(TD-HF/TD-DFT) =  -155.752512355    
 Copying the excited state density for this state as the 1-particle RhoCI density.
 
 Excited State   2:      Singlet-A      6.2266 eV  199.12 nm  f=0.0001  <S**2>=0.000
      14 -> 16         0.53058
      15 -> 17         0.46585
 
 Excited State   3:      Singlet-A      7.7330 eV  160.33 nm  f=0.5989  <S**2>=0.000
      13 -> 17        -0.18364
      14 -> 16        -0.44796
      15 -> 17         0.51171
 SavETr:  write IOETrn=   770 NScale= 10 NData=  16 NLR=1 NState=    3 LETran=      64.
 Leave Link  914 at Mon May 20 18:36:58 2019, MaxMem=   268435456 cpu:             654.0 elap:              57.9
 (Enter /usr/local/gaussian/gaussian16.b1-legacy/g16/l601.exe)
 Copying SCF densities to generalized density rwf, IOpCl= 0 IROHF=0.

 **********************************************************************

            Population analysis using the SCF Density.

 **********************************************************************

 Orbital symmetries:
       Occupied  (A) (A) (A) (A) (A) (A) (A) (A) (A) (A) (A) (A)
                 (A) (A) (A)
       Virtual   (A) (A) (A) (A) (A) (A) (A) (A) (A) (A) (A) (A)
                 (A) (A) (A) (A) (A) (A) (A) (A) (A) (A) (A) (A)
                 (A) (A) (A) (A) (A) (A) (A) (A) (A) (A) (A) (A)
                 (A) (A) (A) (A) (A) (A) (A) (A) (A) (A) (A) (A)
                 (A) (A) (A) (A) (A) (A) (A) (A) (A)
 The electronic state is 1-A.
 Alpha  occ. eigenvalues --  -10.19066 -10.19031 -10.18166 -10.18165  -0.79995
 Alpha  occ. eigenvalues --   -0.72399  -0.60890  -0.53598  -0.47279  -0.44394
 Alpha  occ. eigenvalues --   -0.42141  -0.38372  -0.34120  -0.25896  -0.25720
 Alpha virt. eigenvalues --    0.01228   0.01742   0.13681   0.14017   0.14828
 Alpha virt. eigenvalues --    0.15086   0.18332   0.22336   0.32731   0.33043
 Alpha virt. eigenvalues --    0.36357   0.51703   0.53027   0.54118   0.57154
 Alpha virt. eigenvalues --    0.60565   0.63375   0.65669   0.66582   0.67218
 Alpha virt. eigenvalues --    0.73523   0.73714   0.84984   0.86072   0.88120
 Alpha virt. eigenvalues --    0.88933   0.92257   0.95532   0.97297   1.09698
 Alpha virt. eigenvalues --    1.14047   1.17264   1.31956   1.42125   1.51304
 Alpha virt. eigenvalues --    1.65453   1.67138   1.78840   1.84176   1.88678
 Alpha virt. eigenvalues --    1.97572   1.98488   2.10480   2.13472   2.16424
 Alpha virt. eigenvalues --    2.26853   2.37388   2.38357   2.48930   2.70622
 Alpha virt. eigenvalues --    2.76127   2.81302   2.95187   4.12025   4.12912
 Alpha virt. eigenvalues --    4.28377   4.42029
          Condensed to atoms (all electrons):
               1          2          3          4          5          6
     1  C    4.822733   0.366755   0.411197  -0.052456  -0.041392  -0.007455
     2  H    0.366755   0.587223  -0.052449   0.002759  -0.001017   0.000598
     3  C    0.411197  -0.052449   4.822840   0.366711   0.672298  -0.038047
     4  H   -0.052456   0.002759   0.366711   0.587326  -0.044909   0.005817
     5  C   -0.041392  -0.001017   0.672298  -0.044909   4.999101   0.371723
     6  H   -0.007455   0.000598  -0.038047   0.005817   0.371723   0.563413
     7  H    0.005052  -0.000182  -0.025480  -0.007192   0.361585  -0.041942
     8  C    0.672277  -0.044892  -0.041362  -0.000986  -0.005493   0.001796
     9  H   -0.038042   0.005816  -0.007458   0.000596   0.001789   0.000158
    10  H   -0.025478  -0.007191   0.005050  -0.000182   0.000007  -0.000053
               7          8          9         10
     1  C    0.005052   0.672277  -0.038042  -0.025478
     2  H   -0.000182  -0.044892   0.005816  -0.007191
     3  C   -0.025480  -0.041362  -0.007458   0.005050
     4  H   -0.007192  -0.000986   0.000596  -0.000182
     5  C    0.361585  -0.005493   0.001789   0.000007
     6  H   -0.041942   0.001796   0.000158  -0.000053
     7  H    0.567771   0.000007  -0.000052   0.000005
     8  C    0.000007   4.999067   0.371734   0.361583
     9  H   -0.000052   0.371734   0.563416  -0.041943
    10  H    0.000005   0.361583  -0.041943   0.567792
 Mulliken charges:
               1
     1  C   -0.113191
     2  H    0.142581
     3  C   -0.113301
     4  H    0.142517
     5  C   -0.313693
     6  H    0.143991
     7  H    0.140429
     8  C   -0.313731
     9  H    0.143985
    10  H    0.140412
 Sum of Mulliken charges =   0.00000
 Mulliken charges with hydrogens summed into heavy atoms:
               1
     1  C    0.029390
     3  C    0.029216
     5  C   -0.029272
     8  C   -0.029334
 Electronic spatial extent (au):  <R**2>=            317.4552
 Charge=              0.0000 electrons
 Dipole moment (field-independent basis, Debye):
    X=              0.0007    Y=              0.1612    Z=              0.0017  Tot=              0.1612
 Quadrupole moment (field-independent basis, Debye-Ang):
   XX=            -23.4438   YY=            -24.9482   ZZ=            -24.8775
   XY=              0.0036   XZ=             -0.7737   YZ=             -0.0003
 Traceless Quadrupole moment (field-independent basis, Debye-Ang):
   XX=              0.9794   YY=             -0.5251   ZZ=             -0.4543
   XY=              0.0036   XZ=             -0.7737   YZ=             -0.0003
 Octapole moment (field-independent basis, Debye-Ang**2):
  XXX=              0.0077  YYY=              0.7439  ZZZ=              0.0080  XYY=              0.0098
  XXY=             -2.5515  XXZ=              0.0012  XZZ=             -0.0102  YZZ=              0.5102
  YYZ=             -0.0003  XYZ=             -3.0833
 Hexadecapole moment (field-independent basis, Debye-Ang**3):
 XXXX=           -295.1038 YYYY=            -67.4075 ZZZZ=            -50.8307 XXXY=              0.0195
 XXXZ=             -8.5795 YYYX=              0.0068 YYYZ=             -0.0113 ZZZX=             -0.4598
 ZZZY=              0.0108 XXYY=            -65.8288 XXZZ=            -62.0045 YYZZ=            -17.3684
 XXYZ=             -0.0028 YYXZ=              0.4784 ZZXY=              0.0032
 N-N= 1.041133485464D+02 E-N=-5.687187599528D+02  KE= 1.544151667394D+02
 Leave Link  601 at Mon May 20 18:36:59 2019, MaxMem=   268435456 cpu:               4.4 elap:               0.5
 (Enter /usr/local/gaussian/gaussian16.b1-legacy/g16/l9999.exe)
 Electronic transition elements 
                 1             2             3 
      1  -0.155753D+03 -0.155751D+03 -0.155696D+03
      2   0.288065D-03  0.121557D-01 -0.174371D+01
      3  -0.386212D-01  0.769892D-03 -0.962655D-02
      4   0.492945D-03  0.286888D-01 -0.346878D+00
      5  -0.265075D-03 -0.155050D-01  0.494741D+00
      6  -0.496800D-02  0.110980D-04  0.274717D-02
      7  -0.180628D-03 -0.101220D-01  0.942485D-01
      8   0.706041D-02  0.435877D+00  0.781727D-01
      9   0.767048D-01 -0.192538D-02  0.521354D-02
     10  -0.217720D-02 -0.157282D+00 -0.607517D+00
     11  -0.126129D+00  0.211982D-02 -0.121105D-01
     12  -0.477567D-01  0.727496D-03  0.432078D-03
     13   0.579071D-01 -0.111436D-02  0.259854D-02
     14   0.392619D-03  0.216245D-01 -0.551424D+00
     15  -0.580950D-01  0.114694D-02 -0.447904D-02
     16   0.258814D-04  0.796250D-03 -0.135768D+00
 1\1\GINC-PROMETIO\SP\RB3LYP TD-FC\6-31G(d)\C4H6\SONATAK\20-May-2019\0\
 \#p td B3LYP/6-31G*\\Scan step 10 E= 0.011614\\0,1\C,0,0.670739,0.4149
 96,-0.284249\H,0,0.853678,1.128182,-1.087991\C,0,-0.670775,0.414991,0.
 28427\H,0,-0.855069,1.131627,1.084618\C,0,-1.672127,-0.36854,-0.141944
 \H,0,-1.530844,-1.084402,-0.948991\H,0,-2.661733,-0.326293,0.303357\C,
 0,1.672285,-0.368126,0.142258\H,0,1.531819,-1.082027,0.951184\H,0,2.66
 1422,-0.327009,-0.304186\\Version=EM64L-G16RevB.01\State=1-A\HF=-155.9
 798581\RMSD=3.629e-09\PG=C01 [X(C4H6)]\\@


 YOU SHOULDN'T LET PEOPLE DRIVE YOU CRAZY
 WHEN YOU KNOW IT'S WITHIN WALKING DISTANCE.
 Job cpu time:       0 days  0 hours 13 minutes 59.6 seconds.
 Elapsed time:       0 days  0 hours  1 minutes 15.8 seconds.
 File lengths (MBytes):  RWF=     83 Int=      0 D2E=      0 Chk=      2 Scr=      1
 Normal termination of Gaussian 16 at Mon May 20 18:36:59 2019.
