FCHK created with read_scan from butadiene_scan.fchk
Scan      RB3LYP                                                      6-31G(d)  
Number of atoms                            I               10
Charge                                     I                0
Multiplicity                               I                1
Atomic numbers                             I   N=          10
           6           1           6           1           6           1
           1           6           1           1
Nuclear charges                            R   N=          10
  6.00000000E+00  1.00000000E+00  6.00000000E+00  1.00000000E+00  6.00000000E+00
  1.00000000E+00  1.00000000E+00  6.00000000E+00  1.00000000E+00  1.00000000E+00
Current cartesian coordinates              R   N=          30
  8.13667565E-01 -1.13111013E+00  9.48484957E-01  1.97665574E+00 -1.40982579E+00
  2.63006363E+00 -8.13667565E-01  1.13111013E+00  9.48484957E-01 -1.97665574E+00
  1.40982579E+00  2.63006363E+00 -8.13667565E-01  2.90722251E+00 -8.47957202E-01
  4.01907577E-01  2.75994785E+00 -2.49763242E+00 -2.03618854E+00  4.55351737E+00
 -7.35597748E-01  8.13667565E-01 -2.90722251E+00 -8.47957202E-01 -4.01907577E-01
 -2.75994785E+00 -2.49763242E+00  2.03618854E+00 -4.55351737E+00 -7.35597748E-01
Integer atomic weights                     I   N=          30
           0          -1           0           1          -1           2
           0           1           0          -1           1           2
           0           2           0           0           2          -2
          -2           4           0           0          -2           0
           0          -2          -2           2          -4           0
Real atomic weights                        R   N=          30
  8.13667565E-01 -1.13111013E+00  9.48484957E-01  1.97665574E+00 -1.40982579E+00
  2.63006363E+00 -8.13667565E-01  1.13111013E+00  9.48484957E-01 -1.97665574E+00
  1.40982579E+00  2.63006363E+00 -8.13667565E-01  2.90722251E+00 -8.47957202E-01
  4.01907577E-01  2.75994785E+00 -2.49763242E+00 -2.03618854E+00  4.55351737E+00
 -7.35597748E-01  8.13667565E-01 -2.90722251E+00 -8.47957202E-01 -4.01907577E-01
 -2.75994785E+00 -2.49763242E+00  2.03618854E+00 -4.55351737E+00 -7.35597748E-01
Total Energy                               R     -1.559845110000000E+02
Cartesian Gradient                         R   N=          30
  2.35740210E-04 -1.13533783E-03 -1.73917776E-04  1.68163588E-03  1.55181856E-03
 -9.29003155E-04 -2.35740210E-04  1.13533783E-03 -1.73917776E-04 -1.68163588E-03
 -1.55181856E-03 -9.29003155E-04  1.95393383E-03  1.46243689E-03  1.67396187E-03
 -3.65260809E-04 -2.18243052E-04 -4.08892791E-04 -2.11671991E-04 -8.80823289E-05
 -1.62148146E-04 -1.95393383E-03 -1.46243689E-03  1.67396187E-03  3.65260809E-04
  2.18243052E-04 -4.08892791E-04  2.11671991E-04  8.80823289E-05 -1.62148146E-04
