FCHK created with read_scan from butadiene_scan.fchk
Scan      RB3LYP                                                      6-31G(d)  
Number of atoms                            I               10
Charge                                     I                0
Multiplicity                               I                1
Atomic numbers                             I   N=          10
           6           1           6           1           6           1
           1           6           1           1
Nuclear charges                            R   N=          10
  6.00000000E+00  1.00000000E+00  6.00000000E+00  1.00000000E+00  6.00000000E+00
  1.00000000E+00  1.00000000E+00  6.00000000E+00  1.00000000E+00  1.00000000E+00
Current cartesian coordinates              R   N=          30
  9.49044473E-01 -1.02959360E+00  8.34665688E-01  2.33462132E+00 -9.80745720E-01
  2.36444431E+00 -9.49044473E-01  1.02959360E+00  8.34665688E-01 -2.33462132E+00
  9.80745720E-01  2.36444431E+00 -9.49044473E-01  2.99200629E+00 -7.50415850E-01
  4.43979196E-01  3.16073529E+00 -2.25117440E+00 -2.35797221E+00  4.48095045E+00
 -6.18768940E-01  9.49044473E-01 -2.99200629E+00 -7.50415850E-01 -4.43979196E-01
 -3.16073529E+00 -2.25117440E+00  2.35797221E+00 -4.48095045E+00 -6.18768940E-01
Integer atomic weights                     I   N=          30
           0          -1           0           2           0           2
           0           1           0          -2           0           2
           0           2           0           0           3          -2
          -2           4           0           0          -2           0
           0          -3          -2           2          -4           0
Real atomic weights                        R   N=          30
  9.49044473E-01 -1.02959360E+00  8.34665688E-01  2.33462132E+00 -9.80745720E-01
  2.36444431E+00 -9.49044473E-01  1.02959360E+00  8.34665688E-01 -2.33462132E+00
  9.80745720E-01  2.36444431E+00 -9.49044473E-01  2.99200629E+00 -7.50415850E-01
  4.43979196E-01  3.16073529E+00 -2.25117440E+00 -2.35797221E+00  4.48095045E+00
 -6.18768940E-01  9.49044473E-01 -2.99200629E+00 -7.50415850E-01 -4.43979196E-01
 -3.16073529E+00 -2.25117440E+00  2.35797221E+00 -4.48095045E+00 -6.18768940E-01
Total Energy                               R     -1.559817150000000E+02
Cartesian Gradient                         R   N=          30
 -2.36274395E-03 -1.33750740E-03  1.16778135E-03  1.99030232E-03  9.29556564E-04
 -1.71883659E-03  2.36274395E-03  1.33750740E-03  1.16778135E-03 -1.99030232E-03
 -9.29556564E-04 -1.71883659E-03  1.15444826E-03  7.11998322E-04  1.25984184E-03
 -2.34115462E-04 -1.04790410E-05 -4.28343080E-04 -1.98833650E-04 -5.00999859E-05
 -2.80443512E-04 -1.15444826E-03 -7.11998322E-04  1.25984184E-03  2.34115462E-04
  1.04790410E-05 -4.28343080E-04  1.98833650E-04  5.00999859E-05 -2.80443512E-04
