 Entering Gaussian System, Link 0=g16
 Initial command:
 /usr/local/gaussian/gaussian16.b1-legacy/g16/l1.exe "/scratch/sonatak/Gau-24095.inp" -scrdir="/scratch/sonatak/"
 Entering Link 1 = /usr/local/gaussian/gaussian16.b1-legacy/g16/l1.exe PID=     24096.
  
 Copyright (c) 1988-2017, Gaussian, Inc.  All Rights Reserved.
  
 This is part of the Gaussian(R) 16 program.  It is based on
 the Gaussian(R) 09 system (copyright 2009, Gaussian, Inc.),
 the Gaussian(R) 03 system (copyright 2003, Gaussian, Inc.),
 the Gaussian(R) 98 system (copyright 1998, Gaussian, Inc.),
 the Gaussian(R) 94 system (copyright 1995, Gaussian, Inc.),
 the Gaussian 92(TM) system (copyright 1992, Gaussian, Inc.),
 the Gaussian 90(TM) system (copyright 1990, Gaussian, Inc.),
 the Gaussian 88(TM) system (copyright 1988, Gaussian, Inc.),
 the Gaussian 86(TM) system (copyright 1986, Carnegie Mellon
 University), and the Gaussian 82(TM) system (copyright 1983,
 Carnegie Mellon University). Gaussian is a federally registered
 trademark of Gaussian, Inc.
  
 This software contains proprietary and confidential information,
 including trade secrets, belonging to Gaussian, Inc.
  
 This software is provided under written license and may be
 used, copied, transmitted, or stored only in accord with that
 written license.
  
 The following legend is applicable only to US Government
 contracts under FAR:
  
                    RESTRICTED RIGHTS LEGEND
  
 Use, reproduction and disclosure by the US Government is
 subject to restrictions as set forth in subparagraphs (a)
 and (c) of the Commercial Computer Software - Restricted
 Rights clause in FAR 52.227-19.
  
 Gaussian, Inc.
 340 Quinnipiac St., Bldg. 40, Wallingford CT 06492
  
  
 ---------------------------------------------------------------
 Warning -- This program may not be used in any manner that
 competes with the business of Gaussian, Inc. or will provide
 assistance to any competitor of Gaussian, Inc.  The licensee
 of this program is prohibited from giving any competitor of
 Gaussian, Inc. access to this program.  By using this program,
 the user acknowledges that Gaussian, Inc. is engaged in the
 business of creating and licensing software in the field of
 computational chemistry and represents and warrants to the
 licensee that it is not a competitor of Gaussian, Inc. and that
 it will not use this program in any manner prohibited above.
 ---------------------------------------------------------------
  

 Cite this work as:
 Gaussian 16, Revision B.01,
 M. J. Frisch, G. W. Trucks, H. B. Schlegel, G. E. Scuseria, 
 M. A. Robb, J. R. Cheeseman, G. Scalmani, V. Barone, 
 G. A. Petersson, H. Nakatsuji, X. Li, M. Caricato, A. V. Marenich, 
 J. Bloino, B. G. Janesko, R. Gomperts, B. Mennucci, H. P. Hratchian, 
 J. V. Ortiz, A. F. Izmaylov, J. L. Sonnenberg, D. Williams-Young, 
 F. Ding, F. Lipparini, F. Egidi, J. Goings, B. Peng, A. Petrone, 
 T. Henderson, D. Ranasinghe, V. G. Zakrzewski, J. Gao, N. Rega, 
 G. Zheng, W. Liang, M. Hada, M. Ehara, K. Toyota, R. Fukuda, 
 J. Hasegawa, M. Ishida, T. Nakajima, Y. Honda, O. Kitao, H. Nakai, 
 T. Vreven, K. Throssell, J. A. Montgomery, Jr., J. E. Peralta, 
 F. Ogliaro, M. J. Bearpark, J. J. Heyd, E. N. Brothers, K. N. Kudin, 
 V. N. Staroverov, T. A. Keith, R. Kobayashi, J. Normand, 
 K. Raghavachari, A. P. Rendell, J. C. Burant, S. S. Iyengar, 
 J. Tomasi, M. Cossi, J. M. Millam, M. Klene, C. Adamo, R. Cammi, 
 J. W. Ochterski, R. L. Martin, K. Morokuma, O. Farkas, 
 J. B. Foresman, and D. J. Fox, Gaussian, Inc., Wallingford CT, 2016.
 
 ******************************************
 Gaussian 16:  EM64L-G16RevB.01 20-Dec-2017
                 7-May-2019 
 ******************************************
 %chk=/home/sonatak/tfm/butadiene/scan_19files/butadiene_scan.chk
 -------------------------------------------------
 # opt=modredundant b3lyp/6-31g* geom=connectivity
 -------------------------------------------------
 1/18=120,19=15,26=3,38=1,57=2/1,3;
 2/9=110,12=2,17=6,18=5,40=1/2;
 3/5=1,6=6,7=1,11=2,25=1,30=1,71=1,74=-5/1,2,3;
 4//1;
 5/5=2,38=5/2;
 6/7=2,8=2,9=2,10=2,28=1/1;
 7//1,2,3,16;
 1/18=20,19=15,26=3/3(2);
 2/9=110/2;
 99//99;
 2/9=110/2;
 3/5=1,6=6,7=1,11=2,25=1,30=1,71=1,74=-5/1,2,3;
 4/5=5,16=3,69=1/1;
 5/5=2,38=5/2;
 7//1,2,3,16;
 1/18=20,19=15,26=3/3(-5);
 2/9=110/2;
 6/7=2,8=2,9=2,10=2,19=2,28=1/1;
 99/9=1/99;
 --------------
 Butadiene scan
 --------------
 Symbolic Z-matrix:
 Charge =  0 Multiplicity = 1
 C                    -0.32607   0.65173   0. 
 H                    -1.41653   0.64538   0. 
 C                     0.32607  -0.65173   0. 
 H                     1.41653  -0.64538   0. 
 C                    -0.32607  -1.82297   0. 
 H                    -1.41301  -1.86922   0. 
 H                     0.20132  -2.77208   0. 
 C                     0.32607   1.82297   0. 
 H                     1.41301   1.86922   0. 
 H                    -0.20132   2.77208   0. 
 
 The following ModRedundant input section has been read:
 D       8       1       3       5 S  18 10.000                                
 

 GradGradGradGradGradGradGradGradGradGradGradGradGradGradGradGradGradGrad
 Berny optimization.
 Initialization pass.
                           ----------------------------
                           !    Initial Parameters    !
                           ! (Angstroms and Degrees)  !
 --------------------------                            --------------------------
 ! Name  Definition              Value          Derivative Info.                !
 --------------------------------------------------------------------------------
 ! R1    R(1,2)                  1.0905         estimate D2E/DX2                !
 ! R2    R(1,3)                  1.4575         estimate D2E/DX2                !
 ! R3    R(1,8)                  1.3406         estimate D2E/DX2                !
 ! R4    R(3,4)                  1.0905         estimate D2E/DX2                !
 ! R5    R(3,5)                  1.3406         estimate D2E/DX2                !
 ! R6    R(5,6)                  1.0879         estimate D2E/DX2                !
 ! R7    R(5,7)                  1.0858         estimate D2E/DX2                !
 ! R8    R(8,9)                  1.0879         estimate D2E/DX2                !
 ! R9    R(8,10)                 1.0858         estimate D2E/DX2                !
 ! A1    A(2,1,3)              116.2462         estimate D2E/DX2                !
 ! A2    A(2,1,8)              119.4427         estimate D2E/DX2                !
 ! A3    A(3,1,8)              124.3112         estimate D2E/DX2                !
 ! A4    A(1,3,4)              116.2462         estimate D2E/DX2                !
 ! A5    A(1,3,5)              124.3112         estimate D2E/DX2                !
 ! A6    A(4,3,5)              119.4427         estimate D2E/DX2                !
 ! A7    A(3,5,6)              121.5459         estimate D2E/DX2                !
 ! A8    A(3,5,7)              121.8316         estimate D2E/DX2                !
 ! A9    A(6,5,7)              116.6225         estimate D2E/DX2                !
 ! A10   A(1,8,9)              121.5459         estimate D2E/DX2                !
 ! A11   A(1,8,10)             121.8316         estimate D2E/DX2                !
 ! A12   A(9,8,10)             116.6225         estimate D2E/DX2                !
 ! D1    D(2,1,3,4)            180.0            estimate D2E/DX2                !
 ! D2    D(2,1,3,5)              0.0            estimate D2E/DX2                !
 ! D3    D(8,1,3,4)              0.0            estimate D2E/DX2                !
 ! D4    D(8,1,3,5)            180.0            Scan                            !
 ! D5    D(2,1,8,9)            180.0            estimate D2E/DX2                !
 ! D6    D(2,1,8,10)             0.0            estimate D2E/DX2                !
 ! D7    D(3,1,8,9)              0.0            estimate D2E/DX2                !
 ! D8    D(3,1,8,10)           180.0            estimate D2E/DX2                !
 ! D9    D(1,3,5,6)              0.0            estimate D2E/DX2                !
 ! D10   D(1,3,5,7)            180.0            estimate D2E/DX2                !
 ! D11   D(4,3,5,6)            180.0            estimate D2E/DX2                !
 ! D12   D(4,3,5,7)              0.0            estimate D2E/DX2                !
 --------------------------------------------------------------------------------
 Trust Radius=3.00D-01 FncErr=1.00D-07 GrdErr=1.00D-06 EigMax=2.50D+02 EigMin=1.00D-04
 Number of optimizations in scan=  19
 Number of steps in this run=     43 maximum allowed number of steps=    100.
 GradGradGradGradGradGradGradGradGradGradGradGradGradGradGradGradGradGrad

                          Input orientation:                          
 ---------------------------------------------------------------------
 Center     Atomic      Atomic             Coordinates (Angstroms)
 Number     Number       Type             X           Y           Z
 ---------------------------------------------------------------------
      1          6           0       -0.326073    0.651727    0.000000
      2          1           0       -1.416526    0.645378    0.000000
      3          6           0        0.326073   -0.651727    0.000000
      4          1           0        1.416526   -0.645378    0.000000
      5          6           0       -0.326073   -1.822966    0.000000
      6          1           0       -1.413010   -1.869223    0.000000
      7          1           0        0.201317   -2.772082    0.000000
      8          6           0        0.326073    1.822966    0.000000
      9          1           0        1.413010    1.869223    0.000000
     10          1           0       -0.201317    2.772082    0.000000
 ---------------------------------------------------------------------
                    Distance matrix (angstroms):
                    1          2          3          4          5
     1  C    0.000000
     2  H    1.090471   0.000000
     3  C    1.457493   2.172356   0.000000
     4  H    2.172356   3.113235   1.090471   0.000000
     5  C    2.474693   2.698483   1.340558   2.103180   0.000000
     6  H    2.745291   2.514603   2.122900   3.082867   1.087921
     7  H    3.464189   3.781065   2.124022   2.449409   1.085800
     8  C    1.340558   2.103180   2.474693   2.698483   3.703797
     9  H    2.122900   3.082867   2.745291   2.514603   4.081258
    10  H    2.124022   2.449409   3.464189   3.781065   4.596741
                    6          7          8          9         10
     6  H    0.000000
     7  H    1.849650   0.000000
     8  C    4.081258   4.596741   0.000000
     9  H    4.686402   4.796865   1.087921   0.000000
    10  H    4.796865   5.558765   1.085800   1.849650   0.000000
 Stoichiometry    C4H6
 Framework group  C2H[SGH(C4H6)]
 Deg. of freedom     9
 Full point group                 C2H     NOp   4
 Largest Abelian subgroup         C2H     NOp   4
 Largest concise Abelian subgroup C2      NOp   2
                         Standard orientation:                         
 ---------------------------------------------------------------------
 Center     Atomic      Atomic             Coordinates (Angstroms)
 Number     Number       Type             X           Y           Z
 ---------------------------------------------------------------------
      1          6           0       -0.326073    0.651727    0.000000
      2          1           0       -1.416526    0.645378    0.000000
      3          6           0        0.326073   -0.651727    0.000000
      4          1           0        1.416526   -0.645378    0.000000
      5          6           0       -0.326073   -1.822966    0.000000
      6          1           0       -1.413010   -1.869223    0.000000
      7          1           0        0.201317   -2.772082    0.000000
      8          6           0        0.326073    1.822966    0.000000
      9          1           0        1.413010    1.869223    0.000000
     10          1           0       -0.201317    2.772082    0.000000
 ---------------------------------------------------------------------
 Rotational constants (GHZ):          42.3101715           4.4087169           3.9926800
 Standard basis: 6-31G(d) (6D, 7F)
 There are    28 symmetry adapted cartesian basis functions of AG  symmetry.
 There are     8 symmetry adapted cartesian basis functions of BG  symmetry.
 There are     8 symmetry adapted cartesian basis functions of AU  symmetry.
 There are    28 symmetry adapted cartesian basis functions of BU  symmetry.
 There are    28 symmetry adapted basis functions of AG  symmetry.
 There are     8 symmetry adapted basis functions of BG  symmetry.
 There are     8 symmetry adapted basis functions of AU  symmetry.
 There are    28 symmetry adapted basis functions of BU  symmetry.
    72 basis functions,   136 primitive gaussians,    72 cartesian basis functions
    15 alpha electrons       15 beta electrons
       nuclear repulsion energy       103.5476379238 Hartrees.
 NAtoms=   10 NActive=   10 NUniq=    5 SFac= 4.00D+00 NAtFMM=   60 NAOKFM=F Big=F
 Integral buffers will be    131072 words long.
 Raffenetti 2 integral format.
 Two-electron integral symmetry is turned on.
 One-electron integrals computed using PRISM.
 NBasis=    72 RedAO= T EigKep=  3.63D-03  NBF=    28     8     8    28
 NBsUse=    72 1.00D-06 EigRej= -1.00D+00 NBFU=    28     8     8    28
 ExpMin= 1.61D-01 ExpMax= 3.05D+03 ExpMxC= 4.57D+02 IAcc=3 IRadAn=         5 AccDes= 0.00D+00
 Harris functional with IExCor=  402 and IRadAn=       5 diagonalized for initial guess.
 HarFok:  IExCor=  402 AccDes= 0.00D+00 IRadAn=         5 IDoV= 1 UseB2=F ITyADJ=14
 ICtDFT=  3500011 ScaDFX=  1.000000  1.000000  1.000000  1.000000
 FoFCou: FMM=F IPFlag=           0 FMFlag=      100000 FMFlg1=           0
         NFxFlg=           0 DoJE=T BraDBF=F KetDBF=T FulRan=T
         wScrn=  0.000000 ICntrl=       500 IOpCl=  0 I1Cent=   200000004 NGrid=           0
         NMat0=    1 NMatS0=      1 NMatT0=    0 NMatD0=    1 NMtDS0=    0 NMtDT0=    0
 Petite list used in FoFCou.
 Initial guess orbital symmetries:
       Occupied  (AG) (BU) (AG) (BU) (AG) (BU) (AG) (BU) (BU) (AG)
                 (AG) (BU) (AG) (AU) (BG)
       Virtual   (AU) (BG) (BU) (AG) (BU) (AG) (BU) (AG) (BU) (AG)
                 (BU) (BU) (AG) (AU) (BG) (AG) (BU) (BU) (AG) (BG)
                 (AU) (AG) (BU) (AG) (BU) (AG) (BU) (BU) (AG) (AG)
                 (BU) (AU) (AG) (BU) (BG) (AU) (BG) (AU) (AG) (AG)
                 (BU) (BU) (BG) (BU) (AG) (AG) (BU) (AU) (BG) (AG)
                 (BU) (BU) (AG) (AG) (BU) (AG) (BU)
 The electronic state of the initial guess is 1-AG.
 Keep R1 ints in memory in symmetry-blocked form, NReq=4414629.
 Requested convergence on RMS density matrix=1.00D-08 within 128 cycles.
 Requested convergence on MAX density matrix=1.00D-06.
 Requested convergence on             energy=1.00D-06.
 No special actions if energy rises.
 Integral accuracy reduced to 1.0D-05 until final iterations.
 Initial convergence to 1.0D-05 achieved.  Increase integral accuracy.
 SCF Done:  E(RB3LYP) =  -155.992139567     A.U. after   11 cycles
            NFock= 11  Conv=0.83D-08     -V/T= 2.0103

 **********************************************************************

            Population analysis using the SCF Density.

 **********************************************************************

 Orbital symmetries:
       Occupied  (AG) (BU) (AG) (BU) (AG) (BU) (AG) (BU) (BU) (AG)
                 (AG) (BU) (AG) (AU) (BG)
       Virtual   (AU) (BG) (BU) (AG) (BU) (AG) (BU) (AG) (BU) (AG)
                 (BU) (BU) (AG) (AU) (BG) (AG) (BU) (BG) (BU) (AU)
                 (AG) (AG) (BU) (AG) (BU) (AG) (BU) (BU) (AG) (AG)
                 (BU) (AG) (AU) (BU) (BG) (AU) (BG) (AU) (AG) (AG)
                 (BU) (BU) (BG) (BU) (AG) (AG) (BU) (AU) (BG) (AG)
                 (BU) (BU) (AG) (AG) (BU) (AG) (BU)
 The electronic state is 1-AG.
 Alpha  occ. eigenvalues --  -10.19244 -10.19210 -10.18379 -10.18379  -0.80144
 Alpha  occ. eigenvalues --   -0.72964  -0.60309  -0.55038  -0.46393  -0.45916
 Alpha  occ. eigenvalues --   -0.39135  -0.38493  -0.34435  -0.31982  -0.22901
 Alpha virt. eigenvalues --   -0.02250   0.08546   0.11555   0.12566   0.13074
 Alpha virt. eigenvalues --    0.17488   0.19253   0.21195   0.32520   0.33674
 Alpha virt. eigenvalues --    0.39728   0.47204   0.51672   0.53025   0.57792
 Alpha virt. eigenvalues --    0.60789   0.62697   0.66254   0.67114   0.67142
 Alpha virt. eigenvalues --    0.69333   0.84373   0.85785   0.86386   0.88849
 Alpha virt. eigenvalues --    0.93870   0.94506   0.96241   1.06603   1.11833
 Alpha virt. eigenvalues --    1.13050   1.31989   1.34569   1.35377   1.42916
 Alpha virt. eigenvalues --    1.54128   1.65834   1.76692   1.82347   1.87595
 Alpha virt. eigenvalues --    1.94652   2.05203   2.10000   2.11491   2.16047
 Alpha virt. eigenvalues --    2.31577   2.39855   2.40512   2.47963   2.59855
 Alpha virt. eigenvalues --    2.73608   2.92602   2.98315   4.08651   4.12630
 Alpha virt. eigenvalues --    4.21290   4.44390
          Condensed to atoms (all electrons):
               1          2          3          4          5          6
     1  C    4.741646   0.366091   0.460062  -0.051586  -0.028141  -0.010602
     2  H    0.366091   0.607145  -0.051586   0.005515  -0.006391   0.005806
     3  C    0.460062  -0.051586   4.741646   0.366091   0.634785  -0.036339
     4  H   -0.051586   0.005515   0.366091   0.607145  -0.051901   0.005752
     5  C   -0.028141  -0.006391   0.634785  -0.051901   5.069284   0.368661
     6  H   -0.010602   0.005806  -0.036339   0.005752   0.368661   0.566926
     7  H    0.003890  -0.000009  -0.020038  -0.006967   0.362811  -0.041975
     8  C    0.634785  -0.051901  -0.028141  -0.006391   0.003735   0.000303
     9  H   -0.036339   0.005752  -0.010602   0.005806   0.000303   0.000013
    10  H   -0.020038  -0.006967   0.003890  -0.000009  -0.000216  -0.000004
               7          8          9         10
     1  C    0.003890   0.634785  -0.036339  -0.020038
     2  H   -0.000009  -0.051901   0.005752  -0.006967
     3  C   -0.020038  -0.028141  -0.010602   0.003890
     4  H   -0.006967  -0.006391   0.005806  -0.000009
     5  C    0.362811   0.003735   0.000303  -0.000216
     6  H   -0.041975   0.000303   0.000013  -0.000004
     7  H    0.557811  -0.000216  -0.000004   0.000003
     8  C   -0.000216   5.069284   0.368661   0.362811
     9  H   -0.000004   0.368661   0.566926  -0.041975
    10  H    0.000003   0.362811  -0.041975   0.557811
 Mulliken charges:
               1
     1  C   -0.059770
     2  H    0.126544
     3  C   -0.059770
     4  H    0.126544
     5  C   -0.352929
     6  H    0.141459
     7  H    0.144695
     8  C   -0.352929
     9  H    0.141459
    10  H    0.144695
 Sum of Mulliken charges =  -0.00000
 Mulliken charges with hydrogens summed into heavy atoms:
               1
     1  C    0.066775
     3  C    0.066775
     5  C   -0.066775
     8  C   -0.066775
 Electronic spatial extent (au):  <R**2>=            335.9880
 Charge=              0.0000 electrons
 Dipole moment (field-independent basis, Debye):
    X=             -0.0000    Y=             -0.0000    Z=              0.0000  Tot=              0.0000
 Quadrupole moment (field-independent basis, Debye-Ang):
   XX=            -22.6240   YY=            -22.8412   ZZ=            -27.9364
   XY=             -0.0171   XZ=              0.0000   YZ=              0.0000
 Traceless Quadrupole moment (field-independent basis, Debye-Ang):
   XX=              1.8432   YY=              1.6260   ZZ=             -3.4692
   XY=             -0.0171   XZ=              0.0000   YZ=              0.0000
 Octapole moment (field-independent basis, Debye-Ang**2):
  XXX=             -0.0000  YYY=             -0.0000  ZZZ=              0.0000  XYY=             -0.0000
  XXY=             -0.0000  XXZ=              0.0000  XZZ=              0.0000  YZZ=              0.0000
  YYZ=              0.0000  XYZ=              0.0000
 Hexadecapole moment (field-independent basis, Debye-Ang**3):
 XXXX=            -66.8658 YYYY=           -332.0007 ZZZZ=            -29.0078 XXXY=            -14.7595
 XXXZ=              0.0000 YYYX=            -21.4233 YYYZ=              0.0000 ZZZX=              0.0000
 ZZZY=              0.0000 XXYY=            -68.3698 XXZZ=            -17.8700 YYZZ=            -71.9110
 XXYZ=              0.0000 YYXZ=              0.0000 ZZXY=             -6.3562
 N-N= 1.035476379238D+02 E-N=-5.675276041655D+02  KE= 1.544042001234D+02
 Symmetry AG   KE= 7.667337688015D+01
 Symmetry BG   KE= 2.232210294056D+00
 Symmetry AU   KE= 1.976397612505D+00
 Symmetry BU   KE= 7.352221533665D+01
 Calling FoFJK, ICntrl=      2127 FMM=F ISym2X=1 I1Cent= 0 IOpClX= 0 NMat=1 NMatS=1 NMatT=0.
 ***** Axes restored to original set *****
 -------------------------------------------------------------------
 Center     Atomic                   Forces (Hartrees/Bohr)
 Number     Number              X              Y              Z
 -------------------------------------------------------------------
      1        6           0.000001526    0.000000801   -0.000000000
      2        1          -0.000000383   -0.000000290   -0.000000000
      3        6          -0.000001526   -0.000000801   -0.000000000
      4        1           0.000000383    0.000000290   -0.000000000
      5        6           0.000001652    0.000000901   -0.000000000
      6        1          -0.000000534   -0.000000215   -0.000000000
      7        1          -0.000000186    0.000000212   -0.000000000
      8        6          -0.000001652   -0.000000901   -0.000000000
      9        1           0.000000534    0.000000215   -0.000000000
     10        1           0.000000186   -0.000000212   -0.000000000
 -------------------------------------------------------------------
 Cartesian Forces:  Max     0.000001652 RMS     0.000000690

 GradGradGradGradGradGradGradGradGradGradGradGradGradGradGradGradGradGrad
 Berny optimization.
 FormGI is forming the generalized inverse of G from B-inverse, IUseBI=4.
 Internal  Forces:  Max     0.000001150 RMS     0.000000378
 Search for a local minimum.
 Step number   1 out of a maximum of   43 on scan point     1 out of    19
 All quantities printed in internal units (Hartrees-Bohrs-Radians)
 Mixed Optimization -- En-DIIS/RFO-DIIS
 Second derivative matrix not updated -- first step.
 ITU=  0
     Eigenvalues ---    0.01732   0.02124   0.02875   0.02875   0.02875
     Eigenvalues ---    0.02875   0.16000   0.16000   0.16000   0.16000
     Eigenvalues ---    0.16000   0.16000   0.22000   0.22000   0.34758
     Eigenvalues ---    0.34758   0.35054   0.35054   0.35303   0.35303
     Eigenvalues ---    0.37280   0.57080   0.570801000.000001000.00000
     Eigenvalues --- 1000.000001000.000001000.000001000.000001000.00000
     Eigenvalues --- 1000.000001000.000001000.00000
 RFO step:  Lambda= 0.00000000D+00 EMin= 1.73228825D-02
 Linear search not attempted -- first point.
 Iteration  1 RMS(Cart)=  0.00000112 RMS(Int)=  0.00000000
 Iteration  2 RMS(Cart)=  0.00000000 RMS(Int)=  0.00000000
 Iteration  1 RMS(Cart)=  0.00000000 RMS(Int)=  0.00000000
 ClnCor:  largest displacement from symmetrization is 9.50D-14 for atom     9.
 Variable       Old X    -DE/DX   Delta X   Delta X   Delta X     New X
                                 (Linear)    (Quad)   (Total)
    R1        2.06069   0.00000   0.00000   0.00000   0.00000   2.06069
    R2        2.75426  -0.00000   0.00000  -0.00000  -0.00000   2.75426
    R3        2.53329  -0.00000   0.00000  -0.00000  -0.00000   2.53329
    R4        2.06069   0.00000   0.00000   0.00000   0.00000   2.06069
    R5        2.53329  -0.00000   0.00000  -0.00000  -0.00000   2.53329
    R6        2.05587   0.00000   0.00000   0.00000   0.00000   2.05587
    R7        2.05186  -0.00000   0.00000  -0.00000  -0.00000   2.05186
    R8        2.05587   0.00000   0.00000   0.00000   0.00000   2.05587
    R9        2.05186  -0.00000   0.00000  -0.00000  -0.00000   2.05186
    A1        2.02888  -0.00000   0.00000  -0.00000  -0.00000   2.02888
    A2        2.08467   0.00000   0.00000   0.00000   0.00000   2.08467
    A3        2.16964   0.00000   0.00000   0.00000   0.00000   2.16964
    A4        2.02888  -0.00000   0.00000  -0.00000  -0.00000   2.02888
    A5        2.16964   0.00000   0.00000   0.00000   0.00000   2.16964
    A6        2.08467   0.00000   0.00000   0.00000   0.00000   2.08467
    A7        2.12138   0.00000   0.00000   0.00000   0.00000   2.12138
    A8        2.12636   0.00000   0.00000   0.00000   0.00000   2.12636
    A9        2.03545  -0.00000   0.00000  -0.00000  -0.00000   2.03545
   A10        2.12138   0.00000   0.00000   0.00000   0.00000   2.12138
   A11        2.12636   0.00000   0.00000   0.00000   0.00000   2.12636
   A12        2.03545  -0.00000   0.00000  -0.00000  -0.00000   2.03545
    D1        3.14159  -0.00000   0.00000  -0.00000   0.00000   3.14159
    D2        0.00000  -0.00000   0.00000  -0.00000   0.00000   0.00000
    D3        0.00000  -0.00000   0.00000  -0.00000   0.00000   0.00000
    D4        3.14159   0.00000   0.00000   0.00000   0.00000   3.14159
    D5        3.14159   0.00000   0.00000  -0.00000   0.00000   3.14159
    D6        0.00000   0.00000   0.00000  -0.00000   0.00000   0.00000
    D7        0.00000   0.00000   0.00000  -0.00000   0.00000   0.00000
    D8        3.14159  -0.00000   0.00000  -0.00000   0.00000   3.14159
    D9        0.00000   0.00000   0.00000  -0.00000   0.00000   0.00000
   D10        3.14159   0.00000   0.00000  -0.00000   0.00000   3.14159
   D11        3.14159   0.00000   0.00000  -0.00000   0.00000   3.14159
   D12        0.00000  -0.00000   0.00000   0.00000   0.00000   0.00000
         Item               Value     Threshold  Converged?
 Maximum Force            0.000001     0.000450     YES
 RMS     Force            0.000000     0.000300     YES
 Maximum Displacement     0.000003     0.001800     YES
 RMS     Displacement     0.000001     0.001200     YES
 Predicted change in Energy=-5.908803D-12
 Optimization completed.
    -- Stationary point found.
                           ----------------------------
                           !   Optimized Parameters   !
                           ! (Angstroms and Degrees)  !
 --------------------------                            --------------------------
 ! Name  Definition              Value          Derivative Info.                !
 --------------------------------------------------------------------------------
 ! R1    R(1,2)                  1.0905         -DE/DX =    0.0                 !
 ! R2    R(1,3)                  1.4575         -DE/DX =    0.0                 !
 ! R3    R(1,8)                  1.3406         -DE/DX =    0.0                 !
 ! R4    R(3,4)                  1.0905         -DE/DX =    0.0                 !
 ! R5    R(3,5)                  1.3406         -DE/DX =    0.0                 !
 ! R6    R(5,6)                  1.0879         -DE/DX =    0.0                 !
 ! R7    R(5,7)                  1.0858         -DE/DX =    0.0                 !
 ! R8    R(8,9)                  1.0879         -DE/DX =    0.0                 !
 ! R9    R(8,10)                 1.0858         -DE/DX =    0.0                 !
 ! A1    A(2,1,3)              116.2462         -DE/DX =    0.0                 !
 ! A2    A(2,1,8)              119.4427         -DE/DX =    0.0                 !
 ! A3    A(3,1,8)              124.3112         -DE/DX =    0.0                 !
 ! A4    A(1,3,4)              116.2462         -DE/DX =    0.0                 !
 ! A5    A(1,3,5)              124.3112         -DE/DX =    0.0                 !
 ! A6    A(4,3,5)              119.4427         -DE/DX =    0.0                 !
 ! A7    A(3,5,6)              121.5459         -DE/DX =    0.0                 !
 ! A8    A(3,5,7)              121.8316         -DE/DX =    0.0                 !
 ! A9    A(6,5,7)              116.6225         -DE/DX =    0.0                 !
 ! A10   A(1,8,9)              121.5459         -DE/DX =    0.0                 !
 ! A11   A(1,8,10)             121.8316         -DE/DX =    0.0                 !
 ! A12   A(9,8,10)             116.6225         -DE/DX =    0.0                 !
 ! D1    D(2,1,3,4)            180.0            -DE/DX =    0.0                 !
 ! D2    D(2,1,3,5)              0.0            -DE/DX =    0.0                 !
 ! D3    D(8,1,3,4)              0.0            -DE/DX =    0.0                 !
 ! D4    D(8,1,3,5)            180.0            -DE/DX =    0.0                 !
 ! D5    D(2,1,8,9)            180.0            -DE/DX =    0.0                 !
 ! D6    D(2,1,8,10)             0.0            -DE/DX =    0.0                 !
 ! D7    D(3,1,8,9)              0.0            -DE/DX =    0.0                 !
 ! D8    D(3,1,8,10)           180.0            -DE/DX =    0.0                 !
 ! D9    D(1,3,5,6)              0.0            -DE/DX =    0.0                 !
 ! D10   D(1,3,5,7)            180.0            -DE/DX =    0.0                 !
 ! D11   D(4,3,5,6)            180.0            -DE/DX =    0.0                 !
 ! D12   D(4,3,5,7)              0.0            -DE/DX =    0.0                 !
 --------------------------------------------------------------------------------
 Iteration  1 RMS(Cart)=  0.03227544 RMS(Int)=  0.02164537
 Iteration  2 RMS(Cart)=  0.00094047 RMS(Int)=  0.02163867
 Iteration  3 RMS(Cart)=  0.00000658 RMS(Int)=  0.02163867
 Iteration  4 RMS(Cart)=  0.00000023 RMS(Int)=  0.02163867
 Iteration  1 RMS(Cart)=  0.01639050 RMS(Int)=  0.01097047
 Iteration  2 RMS(Cart)=  0.00832711 RMS(Int)=  0.01226242
 Iteration  3 RMS(Cart)=  0.00422511 RMS(Int)=  0.01373218
 Iteration  4 RMS(Cart)=  0.00214187 RMS(Int)=  0.01462315
 Iteration  5 RMS(Cart)=  0.00108524 RMS(Int)=  0.01510461
 Iteration  6 RMS(Cart)=  0.00054971 RMS(Int)=  0.01535536
 Iteration  7 RMS(Cart)=  0.00027841 RMS(Int)=  0.01548402
 Iteration  8 RMS(Cart)=  0.00014099 RMS(Int)=  0.01554959
 Iteration  9 RMS(Cart)=  0.00007140 RMS(Int)=  0.01558290
 Iteration 10 RMS(Cart)=  0.00003616 RMS(Int)=  0.01559980
 Iteration 11 RMS(Cart)=  0.00001831 RMS(Int)=  0.01560836
 Iteration 12 RMS(Cart)=  0.00000927 RMS(Int)=  0.01561270
 Iteration 13 RMS(Cart)=  0.00000470 RMS(Int)=  0.01561489
 Iteration 14 RMS(Cart)=  0.00000238 RMS(Int)=  0.01561601
 Iteration 15 RMS(Cart)=  0.00000120 RMS(Int)=  0.01561657
 Iteration 16 RMS(Cart)=  0.00000061 RMS(Int)=  0.01561686
 GradGradGradGradGradGradGradGradGradGradGradGradGradGradGradGradGradGrad

                          Input orientation:                          
 ---------------------------------------------------------------------
 Center     Atomic      Atomic             Coordinates (Angstroms)
 Number     Number       Type             X           Y           Z
 ---------------------------------------------------------------------
      1          6           0       -0.325586    0.651970    0.074174
      2          1           0       -1.416050    0.647944    0.075381
      3          6           0        0.325586   -0.651970    0.074174
      4          1           0        1.416050   -0.647943    0.075381
      5          6           0       -0.324981   -1.820436   -0.022419
      6          1           0       -1.411100   -1.865272   -0.068063
      7          1           0        0.202935   -2.768610   -0.059074
      8          6           0        0.324981    1.820436   -0.022419
      9          1           0        1.411100    1.865272   -0.068063
     10          1           0       -0.202935    2.768610   -0.059074
 ---------------------------------------------------------------------
                    Distance matrix (angstroms):
                    1          2          3          4          5
     1  C    0.000000
     2  H    1.090472   0.000000
     3  C    1.457493   2.173263   0.000000
     4  H    2.173263   3.114500   1.090472   0.000000
     5  C    2.474292   2.700536   1.340850   2.101307   0.000000
     6  H    2.745010   2.517311   2.123302   3.081435   1.088003
     7  H    3.463734   3.783124   2.124373   2.446825   1.085851
     8  C    1.340850   2.101307   2.474292   2.700535   3.698431
     9  H    2.123302   3.081435   2.745010   2.517310   4.074371
    10  H    2.124373   2.446825   3.463734   3.783124   4.590814
                    6          7          8          9         10
     6  H    0.000000
     7  H    1.849652   0.000000
     8  C    4.074371   4.590814   0.000000
     9  H    4.677796   4.788800   1.088003   0.000000
    10  H    4.788800   5.552075   1.085851   1.849652   0.000000
 Stoichiometry    C4H6
 Framework group  C1[X(C4H6)]
 Deg. of freedom    24
 Full point group                 C1      NOp   1
 Omega: Change in point group or standard orientation.

 Old FWG=C02H [SGH(C4H6)]
 New FWG=C01  [X(C4H6)]
 Largest Abelian subgroup         C1      NOp   1
 Largest concise Abelian subgroup C1      NOp   1
                         Standard orientation:                         
 ---------------------------------------------------------------------
 Center     Atomic      Atomic             Coordinates (Angstroms)
 Number     Number       Type             X           Y           Z
 ---------------------------------------------------------------------
      1          6           0        0.609385    0.399651    0.056922
      2          1           0        0.477764    1.482150    0.058129
      3          6           0       -0.609385   -0.399651    0.056922
      4          1           0       -0.477764   -1.482150    0.058129
      5          6           0       -1.845959    0.109694   -0.039670
      6          1           0       -2.017601    1.183102   -0.085314
      7          1           0       -2.725833   -0.525564   -0.076325
      8          6           0        1.845959   -0.109694   -0.039670
      9          1           0        2.017601   -1.183102   -0.085314
     10          1           0        2.725833    0.525564   -0.076325
 ---------------------------------------------------------------------
 Rotational constants (GHZ):          41.8575635           4.4143257           4.0025599
 Standard basis: 6-31G(d) (6D, 7F)
 There are    72 symmetry adapted cartesian basis functions of A   symmetry.
 There are    72 symmetry adapted basis functions of A   symmetry.
    72 basis functions,   136 primitive gaussians,    72 cartesian basis functions
    15 alpha electrons       15 beta electrons
       nuclear repulsion energy       103.5548391012 Hartrees.
 NAtoms=   10 NActive=   10 NUniq=   10 SFac= 1.00D+00 NAtFMM=   60 NAOKFM=F Big=F
 Integral buffers will be    131072 words long.
 Raffenetti 2 integral format.
 Two-electron integral symmetry is turned on.
 One-electron integrals computed using PRISM.
 NBasis=    72 RedAO= T EigKep=  3.69D-03  NBF=    72
 NBsUse=    72 1.00D-06 EigRej= -1.00D+00 NBFU=    72
 Initial guess from the checkpoint file:  "/home/sonatak/tfm/butadiene/scan_19files/butadiene_scan.chk"
 B after Tr=     0.000000   -0.000000    0.000000
         Rot=    0.747373   -0.000000   -0.000000    0.664405 Ang=  83.27 deg.
 ExpMin= 1.61D-01 ExpMax= 3.05D+03 ExpMxC= 4.57D+02 IAcc=3 IRadAn=         5 AccDes= 0.00D+00
 Harris functional with IExCor=  402 and IRadAn=       5 diagonalized for initial guess.
 HarFok:  IExCor=  402 AccDes= 0.00D+00 IRadAn=         5 IDoV= 1 UseB2=F ITyADJ=14
 ICtDFT=  3500011 ScaDFX=  1.000000  1.000000  1.000000  1.000000
 FoFCou: FMM=F IPFlag=           0 FMFlag=      100000 FMFlg1=           0
         NFxFlg=           0 DoJE=T BraDBF=F KetDBF=T FulRan=T
         wScrn=  0.000000 ICntrl=       500 IOpCl=  0 I1Cent=   200000004 NGrid=           0
         NMat0=    1 NMatS0=      1 NMatT0=    0 NMatD0=    1 NMtDS0=    0 NMtDT0=    0
 Petite list used in FoFCou.
 Keep R1 ints in memory in canonical form, NReq=4352901.
 Requested convergence on RMS density matrix=1.00D-08 within 128 cycles.
 Requested convergence on MAX density matrix=1.00D-06.
 Requested convergence on             energy=1.00D-06.
 No special actions if energy rises.
 Integral accuracy reduced to 1.0D-05 until final iterations.
 Initial convergence to 1.0D-05 achieved.  Increase integral accuracy.
 SCF Done:  E(RB3LYP) =  -155.991657742     A.U. after   10 cycles
            NFock= 10  Conv=0.74D-08     -V/T= 2.0103
 Calling FoFJK, ICntrl=      2127 FMM=F ISym2X=0 I1Cent= 0 IOpClX= 0 NMat=1 NMatS=1 NMatT=0.
 ***** Axes restored to original set *****
 -------------------------------------------------------------------
 Center     Atomic                   Forces (Hartrees/Bohr)
 Number     Number              X              Y              Z
 -------------------------------------------------------------------
      1        6          -0.000139275    0.000463998   -0.004356694
      2        1          -0.000021911   -0.000182015    0.001924174
      3        6           0.000139277   -0.000464000   -0.004356694
      4        1           0.000021912    0.000182015    0.001924174
      5        6          -0.000172723    0.000129739    0.001949293
      6        1           0.000015954   -0.000040726    0.000551306
      7        1           0.000017179    0.000050805   -0.000068079
      8        6           0.000172724   -0.000129739    0.001949293
      9        1          -0.000015956    0.000040726    0.000551306
     10        1          -0.000017181   -0.000050804   -0.000068079
 -------------------------------------------------------------------
 Cartesian Forces:  Max     0.004356694 RMS     0.001344403

 GradGradGradGradGradGradGradGradGradGradGradGradGradGradGradGradGradGrad
 Berny optimization.
 FormGI is forming the generalized inverse of G from B-inverse, IUseBI=4.
 Internal  Forces:  Max     0.002731522 RMS     0.000794990
 Search for a local minimum.
 Step number   1 out of a maximum of   43 on scan point     2 out of    19
 All quantities printed in internal units (Hartrees-Bohrs-Radians)
 Mixed Optimization -- RFO/linear search
 Second derivative matrix not updated -- first step.
 ITU=  0
     Eigenvalues ---    0.01738   0.02136   0.02875   0.02875   0.02875
     Eigenvalues ---    0.02875   0.15957   0.15971   0.16000   0.16000
     Eigenvalues ---    0.16000   0.16000   0.22009   0.22009   0.34758
     Eigenvalues ---    0.34758   0.35054   0.35054   0.35303   0.35303
     Eigenvalues ---    0.37280   0.57080   0.570801000.000001000.00000
     Eigenvalues --- 1000.000001000.000001000.000001000.000001000.00000
     Eigenvalues --- 1000.000001000.000001000.00000
 RFO step:  Lambda=-2.83064077D-04 EMin= 1.73781845D-02
 Linear search not attempted -- first point.
 Iteration  1 RMS(Cart)=  0.01745269 RMS(Int)=  0.00038362
 Iteration  2 RMS(Cart)=  0.00034139 RMS(Int)=  0.00010626
 Iteration  3 RMS(Cart)=  0.00000004 RMS(Int)=  0.00010626
 Iteration  1 RMS(Cart)=  0.00000596 RMS(Int)=  0.00000399
 Iteration  2 RMS(Cart)=  0.00000302 RMS(Int)=  0.00000446
 Iteration  3 RMS(Cart)=  0.00000153 RMS(Int)=  0.00000499
 Iteration  4 RMS(Cart)=  0.00000078 RMS(Int)=  0.00000532
 Variable       Old X    -DE/DX   Delta X   Delta X   Delta X     New X
                                 (Linear)    (Quad)   (Total)
    R1        2.06069   0.00002   0.00000   0.00007   0.00007   2.06076
    R2        2.75426   0.00014   0.00000   0.00037   0.00037   2.75463
    R3        2.53384  -0.00023   0.00000  -0.00040  -0.00040   2.53344
    R4        2.06069   0.00002   0.00000   0.00007   0.00007   2.06076
    R5        2.53384  -0.00023   0.00000  -0.00040  -0.00040   2.53344
    R6        2.05603  -0.00004   0.00000  -0.00011  -0.00011   2.05592
    R7        2.05196  -0.00003   0.00000  -0.00010  -0.00010   2.05187
    R8        2.05603  -0.00004   0.00000  -0.00011  -0.00011   2.05592
    R9        2.05196  -0.00003   0.00000  -0.00010  -0.00010   2.05187
    A1        2.03026  -0.00030   0.00000  -0.00072  -0.00097   2.02929
    A2        2.08115   0.00033   0.00000   0.00268   0.00243   2.08358
    A3        2.16863   0.00013   0.00000   0.00109   0.00085   2.16948
    A4        2.03026  -0.00030   0.00000  -0.00072  -0.00097   2.02929
    A5        2.16863   0.00013   0.00000   0.00109   0.00085   2.16948
    A6        2.08115   0.00033   0.00000   0.00268   0.00243   2.08358
    A7        2.12150   0.00004   0.00000   0.00023   0.00020   2.12169
    A8        2.12644  -0.00005   0.00000  -0.00034  -0.00037   2.12607
    A9        2.03525   0.00002   0.00000   0.00011   0.00008   2.03533
   A10        2.12150   0.00004   0.00000   0.00023   0.00020   2.12169
   A11        2.12644  -0.00005   0.00000  -0.00034  -0.00037   2.12607
   A12        2.03525   0.00002   0.00000   0.00011   0.00008   2.03533
    D1       -3.13912   0.00145   0.00000   0.08335   0.08331  -3.05581
    D2        0.08850  -0.00064   0.00000   0.04167   0.04166   0.13016
    D3        0.08850  -0.00064   0.00000   0.04167   0.04166   0.13016
    D4       -2.96706  -0.00273   0.00000   0.00000   0.00000  -2.96706
    D5       -3.09741  -0.00154   0.00000  -0.03797  -0.03800  -3.13541
    D6        0.04418  -0.00112   0.00000  -0.02348  -0.02350   0.02067
    D7       -0.04420   0.00058   0.00000   0.00468   0.00471  -0.03949
    D8        3.09740   0.00100   0.00000   0.01917   0.01920   3.11660
    D9       -0.04420   0.00058   0.00000   0.00468   0.00471  -0.03949
   D10        3.09740   0.00100   0.00000   0.01917   0.01920   3.11660
   D11       -3.09741  -0.00154   0.00000  -0.03797  -0.03800  -3.13541
   D12        0.04418  -0.00112   0.00000  -0.02348  -0.02350   0.02067
         Item               Value     Threshold  Converged?
 Maximum Force            0.001482     0.000450     NO 
 RMS     Force            0.000424     0.000300     NO 
 Maximum Displacement     0.056429     0.001800     NO 
 RMS     Displacement     0.017459     0.001200     NO 
 Predicted change in Energy=-1.439775D-04
 GradGradGradGradGradGradGradGradGradGradGradGradGradGradGradGradGradGrad

                          Input orientation:                          
 ---------------------------------------------------------------------
 Center     Atomic      Atomic             Coordinates (Angstroms)
 Number     Number       Type             X           Y           Z
 ---------------------------------------------------------------------
      1          6           0       -0.325268    0.652237    0.063312
      2          1           0       -1.414964    0.648156    0.105242
      3          6           0        0.325268   -0.652237    0.063312
      4          1           0        1.414964   -0.648156    0.105242
      5          6           0       -0.324854   -1.820712   -0.033211
      6          1           0       -1.410712   -1.865819   -0.083252
      7          1           0        0.202813   -2.769487   -0.052090
      8          6           0        0.324854    1.820712   -0.033211
      9          1           0        1.410712    1.865819   -0.083252
     10          1           0       -0.202813    2.769487   -0.052090
 ---------------------------------------------------------------------
                    Distance matrix (angstroms):
                    1          2          3          4          5
     1  C    0.000000
     2  H    1.090510   0.000000
     3  C    1.457687   2.172829   0.000000
     4  H    2.172829   3.112703   1.090510   0.000000
     5  C    2.474832   2.702372   1.340637   2.102623   0.000000
     6  H    2.745956   2.521035   2.123179   3.082642   1.087946
     7  H    3.464157   3.784473   2.123926   2.448287   1.085801
     8  C    1.340637   2.102623   2.474832   2.702372   3.698930
     9  H    2.123179   3.082642   2.745956   2.521035   4.074948
    10  H    2.123926   2.448287   3.464157   3.784473   4.591859
                    6          7          8          9         10
     6  H    0.000000
     7  H    1.849609   0.000000
     8  C    4.074948   4.591859   0.000000
     9  H    4.678200   4.790203   1.087946   0.000000
    10  H    4.790203   5.553806   1.085801   1.849609   0.000000
 Stoichiometry    C4H6
 Framework group  C1[X(C4H6)]
 Deg. of freedom    24
 Full point group                 C1      NOp   1
 Largest Abelian subgroup         C1      NOp   1
 Largest concise Abelian subgroup C1      NOp   1
                         Standard orientation:                         
 ---------------------------------------------------------------------
 Center     Atomic      Atomic             Coordinates (Angstroms)
 Number     Number       Type             X           Y           Z
 ---------------------------------------------------------------------
      1          6           0        0.609714    0.399326    0.053279
      2          1           0        0.478202    1.481065    0.095208
      3          6           0       -0.609714   -0.399326    0.053279
      4          1           0       -0.478202   -1.481064    0.095208
      5          6           0       -1.846211    0.109660   -0.043245
      6          1           0       -2.018019    1.182789   -0.093286
      7          1           0       -2.726754   -0.525361   -0.062124
      8          6           0        1.846211   -0.109660   -0.043245
      9          1           0        2.018019   -1.182789   -0.093286
     10          1           0        2.726754    0.525361   -0.062124
 ---------------------------------------------------------------------
 Rotational constants (GHZ):          41.8799645           4.4122185           4.0015618
 Standard basis: 6-31G(d) (6D, 7F)
 There are    72 symmetry adapted cartesian basis functions of A   symmetry.
 There are    72 symmetry adapted basis functions of A   symmetry.
    72 basis functions,   136 primitive gaussians,    72 cartesian basis functions
    15 alpha electrons       15 beta electrons
       nuclear repulsion energy       103.5491570130 Hartrees.
 NAtoms=   10 NActive=   10 NUniq=   10 SFac= 1.00D+00 NAtFMM=   60 NAOKFM=F Big=F
 Integral buffers will be    131072 words long.
 Raffenetti 2 integral format.
 Two-electron integral symmetry is turned on.
 One-electron integrals computed using PRISM.
 NBasis=    72 RedAO= T EigKep=  3.69D-03  NBF=    72
 NBsUse=    72 1.00D-06 EigRej= -1.00D+00 NBFU=    72
 Initial guess from the checkpoint file:  "/home/sonatak/tfm/butadiene/scan_19files/butadiene_scan.chk"
 B after Tr=     0.000000    0.000000   -0.000000
         Rot=    1.000000   -0.000000   -0.000000    0.000032 Ang=   0.00 deg.
 ExpMin= 1.61D-01 ExpMax= 3.05D+03 ExpMxC= 4.57D+02 IAcc=3 IRadAn=         5 AccDes= 0.00D+00
 Harris functional with IExCor=  402 and IRadAn=       5 diagonalized for initial guess.
 HarFok:  IExCor=  402 AccDes= 0.00D+00 IRadAn=         5 IDoV= 1 UseB2=F ITyADJ=14
 ICtDFT=  3500011 ScaDFX=  1.000000  1.000000  1.000000  1.000000
 FoFCou: FMM=F IPFlag=           0 FMFlag=      100000 FMFlg1=           0
         NFxFlg=           0 DoJE=T BraDBF=F KetDBF=T FulRan=T
         wScrn=  0.000000 ICntrl=       500 IOpCl=  0 I1Cent=   200000004 NGrid=           0
         NMat0=    1 NMatS0=      1 NMatT0=    0 NMatD0=    1 NMtDS0=    0 NMtDT0=    0
 Petite list used in FoFCou.
 Keep R1 ints in memory in canonical form, NReq=4352901.
 Requested convergence on RMS density matrix=1.00D-08 within 128 cycles.
 Requested convergence on MAX density matrix=1.00D-06.
 Requested convergence on             energy=1.00D-06.
 No special actions if energy rises.
 Integral accuracy reduced to 1.0D-05 until final iterations.
 Initial convergence to 1.0D-05 achieved.  Increase integral accuracy.
 SCF Done:  E(RB3LYP) =  -155.991791078     A.U. after    9 cycles
            NFock=  9  Conv=0.46D-08     -V/T= 2.0103
 Calling FoFJK, ICntrl=      2127 FMM=F ISym2X=0 I1Cent= 0 IOpClX= 0 NMat=1 NMatS=1 NMatT=0.
 ***** Axes restored to original set *****
 -------------------------------------------------------------------
 Center     Atomic                   Forces (Hartrees/Bohr)
 Number     Number              X              Y              Z
 -------------------------------------------------------------------
      1        6          -0.000311139    0.000243998   -0.001980675
      2        1           0.000004524   -0.000039850   -0.000057631
      3        6           0.000311140   -0.000243998   -0.001980675
      4        1          -0.000004524    0.000039850   -0.000057631
      5        6          -0.000118260    0.000040109    0.002446211
      6        1           0.000020163    0.000028010   -0.000238350
      7        1           0.000019152    0.000001929   -0.000169556
      8        6           0.000118260   -0.000040109    0.002446211
      9        1          -0.000020163   -0.000028010   -0.000238350
     10        1          -0.000019152   -0.000001929   -0.000169556
 -------------------------------------------------------------------
 Cartesian Forces:  Max     0.002446211 RMS     0.000823448

 GradGradGradGradGradGradGradGradGradGradGradGradGradGradGradGradGradGrad
 Berny optimization.
 Using GEDIIS/GDIIS optimizer.
 FormGI is forming the generalized inverse of G from B-inverse, IUseBI=4.
 Internal  Forces:  Max     0.001915957 RMS     0.000487010
 Search for a local minimum.
 Step number   2 out of a maximum of   43 on scan point     2 out of    19
 All quantities printed in internal units (Hartrees-Bohrs-Radians)
 Mixed Optimization -- En-DIIS/RFO-DIIS
 Update second derivatives using D2CorX and points    1    2
 DE= -1.33D-04 DEPred=-1.44D-04 R= 9.26D-01
 TightC=F SS=  1.41D+00  RLast= 1.23D-01 DXNew= 5.0454D-01 3.6989D-01
 Trust test= 9.26D-01 RLast= 1.23D-01 DXMaxT set to 3.70D-01
 ITU=  1  0
 Use linear search instead of GDIIS.
     Eigenvalues ---    0.01644   0.02127   0.02846   0.02875   0.02876
     Eigenvalues ---    0.03302   0.15969   0.15992   0.16000   0.16000
     Eigenvalues ---    0.16000   0.16002   0.22002   0.22004   0.34758
     Eigenvalues ---    0.34758   0.35054   0.35054   0.35303   0.35303
     Eigenvalues ---    0.37277   0.57046   0.570801000.000001000.00000
     Eigenvalues --- 1000.000001000.000001000.000001000.000001000.00000
     Eigenvalues --- 1000.000001000.000001000.00000
 RFO step:  Lambda=-7.72256318D-06 EMin= 1.64443694D-02
 Quartic linear search produced a step of -0.05418.
 Iteration  1 RMS(Cart)=  0.00285765 RMS(Int)=  0.00001421
 Iteration  2 RMS(Cart)=  0.00001086 RMS(Int)=  0.00000889
 Iteration  3 RMS(Cart)=  0.00000000 RMS(Int)=  0.00000889
 Iteration  1 RMS(Cart)=  0.00000003 RMS(Int)=  0.00000002
 Variable       Old X    -DE/DX   Delta X   Delta X   Delta X     New X
                                 (Linear)    (Quad)   (Total)
    R1        2.06076  -0.00001  -0.00000  -0.00001  -0.00002   2.06075
    R2        2.75463   0.00022  -0.00002   0.00059   0.00057   2.75520
    R3        2.53344  -0.00017   0.00002  -0.00031  -0.00029   2.53315
    R4        2.06076  -0.00001  -0.00000  -0.00001  -0.00002   2.06075
    R5        2.53344  -0.00017   0.00002  -0.00031  -0.00029   2.53315
    R6        2.05592  -0.00001   0.00001  -0.00004  -0.00003   2.05589
    R7        2.05187   0.00001   0.00001   0.00002   0.00003   2.05189
    R8        2.05592  -0.00001   0.00001  -0.00004  -0.00003   2.05589
    R9        2.05187   0.00001   0.00001   0.00002   0.00003   2.05189
    A1        2.02929  -0.00005   0.00005  -0.00034  -0.00028   2.02901
    A2        2.08358   0.00007  -0.00013   0.00040   0.00028   2.08386
    A3        2.16948   0.00001  -0.00005   0.00005   0.00002   2.16950
    A4        2.02929  -0.00005   0.00005  -0.00034  -0.00028   2.02901
    A5        2.16948   0.00001  -0.00005   0.00005   0.00002   2.16950
    A6        2.08358   0.00007  -0.00013   0.00040   0.00028   2.08386
    A7        2.12169  -0.00001  -0.00001  -0.00003  -0.00006   2.12164
    A8        2.12607   0.00000   0.00002   0.00003   0.00003   2.12610
    A9        2.03533   0.00001  -0.00000   0.00013   0.00011   2.03544
   A10        2.12169  -0.00001  -0.00001  -0.00003  -0.00006   2.12164
   A11        2.12607   0.00000   0.00002   0.00003   0.00003   2.12610
   A12        2.03533   0.00001  -0.00000   0.00013   0.00011   2.03544
    D1       -3.05581  -0.00005  -0.00451   0.00557   0.00105  -3.05476
    D2        0.13016  -0.00098  -0.00226   0.00278   0.00053   0.13068
    D3        0.13016  -0.00098  -0.00226   0.00278   0.00053   0.13068
    D4       -2.96706  -0.00192  -0.00000   0.00000  -0.00000  -2.96706
    D5       -3.13541  -0.00027   0.00206   0.00414   0.00620  -3.12921
    D6        0.02067  -0.00063   0.00127  -0.00647  -0.00520   0.01547
    D7       -0.03949   0.00069  -0.00026   0.00699   0.00673  -0.03276
    D8        3.11660   0.00033  -0.00104  -0.00363  -0.00467   3.11193
    D9       -0.03949   0.00069  -0.00026   0.00699   0.00673  -0.03276
   D10        3.11660   0.00033  -0.00104  -0.00363  -0.00467   3.11193
   D11       -3.13541  -0.00027   0.00206   0.00414   0.00620  -3.12921
   D12        0.02067  -0.00063   0.00127  -0.00647  -0.00520   0.01547
         Item               Value     Threshold  Converged?
 Maximum Force            0.000222     0.000450     YES
 RMS     Force            0.000109     0.000300     YES
 Maximum Displacement     0.007965     0.001800     NO 
 RMS     Displacement     0.002858     0.001200     NO 
 Predicted change in Energy=-4.306553D-06
 GradGradGradGradGradGradGradGradGradGradGradGradGradGradGradGradGradGrad

                          Input orientation:                          
 ---------------------------------------------------------------------
 Center     Atomic      Atomic             Coordinates (Angstroms)
 Number     Number       Type             X           Y           Z
 ---------------------------------------------------------------------
      1          6           0       -0.325268    0.652406    0.065304
      2          1           0       -1.414935    0.648146    0.107753
      3          6           0        0.325268   -0.652406    0.065304
      4          1           0        1.414935   -0.648146    0.107753
      5          6           0       -0.324877   -1.820692   -0.031206
      6          1           0       -1.410435   -1.865293   -0.087468
      7          1           0        0.202920   -2.769315   -0.054383
      8          6           0        0.324877    1.820692   -0.031206
      9          1           0        1.410435    1.865293   -0.087468
     10          1           0       -0.202920    2.769315   -0.054383
 ---------------------------------------------------------------------
                    Distance matrix (angstroms):
                    1          2          3          4          5
     1  C    0.000000
     2  H    1.090501   0.000000
     3  C    1.457989   2.172911   0.000000
     4  H    2.172911   3.112641   1.090501   0.000000
     5  C    2.474981   2.702350   1.340483   2.102646   0.000000
     6  H    2.745858   2.521013   2.122993   3.082576   1.087930
     7  H    3.464316   3.784545   2.123817   2.448393   1.085815
     8  C    1.340483   2.102646   2.474980   2.702350   3.698900
     9  H    2.122993   3.082576   2.745858   2.521013   4.074427
    10  H    2.123817   2.448393   3.464316   3.784545   4.591686
                    6          7          8          9         10
     6  H    0.000000
     7  H    1.849667   0.000000
     8  C    4.074427   4.591686   0.000000
     9  H    4.677027   4.789445   1.087930   0.000000
    10  H    4.789445   5.553480   1.085815   1.849667   0.000000
 Stoichiometry    C4H6
 Framework group  C1[X(C4H6)]
 Deg. of freedom    24
 Full point group                 C1      NOp   1
 Largest Abelian subgroup         C1      NOp   1
 Largest concise Abelian subgroup C1      NOp   1
                         Standard orientation:                         
 ---------------------------------------------------------------------
 Center     Atomic      Atomic             Coordinates (Angstroms)
 Number     Number       Type             X           Y           Z
 ---------------------------------------------------------------------
      1          6           0        0.609901    0.399317    0.053938
      2          1           0        0.478266    1.481011    0.096388
      3          6           0       -0.609901   -0.399317    0.053938
      4          1           0       -0.478266   -1.481011    0.096388
      5          6           0       -1.846189    0.109773   -0.042572
      6          1           0       -2.017408    1.182672   -0.098833
      7          1           0       -2.726596   -0.525317   -0.065749
      8          6           0        1.846189   -0.109773   -0.042572
      9          1           0        2.017408   -1.182672   -0.098833
     10          1           0        2.726596    0.525317   -0.065749
 ---------------------------------------------------------------------
 Rotational constants (GHZ):          41.8687270           4.4121919           4.0016764
 Standard basis: 6-31G(d) (6D, 7F)
 There are    72 symmetry adapted cartesian basis functions of A   symmetry.
 There are    72 symmetry adapted basis functions of A   symmetry.
    72 basis functions,   136 primitive gaussians,    72 cartesian basis functions
    15 alpha electrons       15 beta electrons
       nuclear repulsion energy       103.5494751099 Hartrees.
 NAtoms=   10 NActive=   10 NUniq=   10 SFac= 1.00D+00 NAtFMM=   60 NAOKFM=F Big=F
 Integral buffers will be    131072 words long.
 Raffenetti 2 integral format.
 Two-electron integral symmetry is turned on.
 One-electron integrals computed using PRISM.
 NBasis=    72 RedAO= T EigKep=  3.69D-03  NBF=    72
 NBsUse=    72 1.00D-06 EigRej= -1.00D+00 NBFU=    72
 Initial guess from the checkpoint file:  "/home/sonatak/tfm/butadiene/scan_19files/butadiene_scan.chk"
 B after Tr=    -0.000000   -0.000000   -0.000000
         Rot=    1.000000   -0.000000    0.000000    0.000030 Ang=   0.00 deg.
 Keep R1 ints in memory in canonical form, NReq=4352901.
 Requested convergence on RMS density matrix=1.00D-08 within 128 cycles.
 Requested convergence on MAX density matrix=1.00D-06.
 Requested convergence on             energy=1.00D-06.
 No special actions if energy rises.
 SCF Done:  E(RB3LYP) =  -155.991794674     A.U. after    8 cycles
            NFock=  8  Conv=0.18D-08     -V/T= 2.0103
 Calling FoFJK, ICntrl=      2127 FMM=F ISym2X=0 I1Cent= 0 IOpClX= 0 NMat=1 NMatS=1 NMatT=0.
 ***** Axes restored to original set *****
 -------------------------------------------------------------------
 Center     Atomic                   Forces (Hartrees/Bohr)
 Number     Number              X              Y              Z
 -------------------------------------------------------------------
      1        6          -0.000322425   -0.000058381   -0.001831986
      2        1           0.000000885   -0.000013573   -0.000009316
      3        6           0.000322425    0.000058381   -0.001831986
      4        1          -0.000000885    0.000013573   -0.000009316
      5        6          -0.000138097   -0.000044457    0.001768603
      6        1          -0.000002843    0.000000843    0.000038091
      7        1          -0.000001431   -0.000001351    0.000034609
      8        6           0.000138097    0.000044457    0.001768603
      9        1           0.000002843   -0.000000843    0.000038091
     10        1           0.000001431    0.000001351    0.000034609
 -------------------------------------------------------------------
 Cartesian Forces:  Max     0.001831986 RMS     0.000664102

 GradGradGradGradGradGradGradGradGradGradGradGradGradGradGradGradGradGrad
 Berny optimization.
 Using GEDIIS/GDIIS optimizer.
 FormGI is forming the generalized inverse of G from B-inverse, IUseBI=4.
 Internal  Forces:  Max     0.001937261 RMS     0.000480807
 Search for a local minimum.
 Step number   3 out of a maximum of   43 on scan point     2 out of    19
 All quantities printed in internal units (Hartrees-Bohrs-Radians)
 Mixed Optimization -- En-DIIS/RFO-DIIS
 Swapping is turned off.
 Update second derivatives using D2CorX and points    1    2    3
 DE= -3.60D-06 DEPred=-4.31D-06 R= 8.35D-01
 TightC=F SS=  1.41D+00  RLast= 1.64D-02 DXNew= 6.2208D-01 4.9096D-02
 Trust test= 8.35D-01 RLast= 1.64D-02 DXMaxT set to 3.70D-01
 ITU=  1  1  0
     Eigenvalues ---    0.01708   0.02128   0.02871   0.02875   0.02875
     Eigenvalues ---    0.03785   0.15905   0.15992   0.16000   0.16000
     Eigenvalues ---    0.16000   0.16001   0.22002   0.22011   0.34758
     Eigenvalues ---    0.34758   0.35053   0.35054   0.35303   0.35303
     Eigenvalues ---    0.36959   0.56777   0.570801000.000001000.00000
     Eigenvalues --- 1000.000001000.000001000.000001000.000001000.00000
     Eigenvalues --- 1000.000001000.000001000.00000
 En-DIIS/RFO-DIIS/Sim-DIIS IScMMF=       -3 using points:     3    2
 RFO step:  Lambda=-2.62788243D-07.
 DidBck=F Rises=F RFO-DIIS coefs:    0.84502    0.15498
 Iteration  1 RMS(Cart)=  0.00052489 RMS(Int)=  0.00000105
 Iteration  2 RMS(Cart)=  0.00000027 RMS(Int)=  0.00000101
 Iteration  1 RMS(Cart)=  0.00000011 RMS(Int)=  0.00000008
 Variable       Old X    -DE/DX   Delta X   Delta X   Delta X     New X
                                 (Linear)    (Quad)   (Total)
    R1        2.06075  -0.00000   0.00000  -0.00001  -0.00000   2.06075
    R2        2.75520   0.00006  -0.00009   0.00022   0.00013   2.75533
    R3        2.53315  -0.00002   0.00005  -0.00008  -0.00004   2.53311
    R4        2.06075  -0.00000   0.00000  -0.00001  -0.00000   2.06075
    R5        2.53315  -0.00002   0.00005  -0.00008  -0.00004   2.53311
    R6        2.05589   0.00000   0.00000  -0.00000   0.00000   2.05589
    R7        2.05189  -0.00000  -0.00000   0.00000  -0.00000   2.05189
    R8        2.05589   0.00000   0.00000  -0.00000   0.00000   2.05589
    R9        2.05189  -0.00000  -0.00000   0.00000  -0.00000   2.05189
    A1        2.02901  -0.00002   0.00004  -0.00009  -0.00005   2.02896
    A2        2.08386   0.00006  -0.00004   0.00013   0.00009   2.08394
    A3        2.16950  -0.00000  -0.00000  -0.00005  -0.00005   2.16945
    A4        2.02901  -0.00002   0.00004  -0.00009  -0.00005   2.02896
    A5        2.16950  -0.00000  -0.00000  -0.00005  -0.00005   2.16945
    A6        2.08386   0.00006  -0.00004   0.00013   0.00009   2.08394
    A7        2.12164  -0.00000   0.00001  -0.00003  -0.00002   2.12161
    A8        2.12610   0.00000  -0.00001   0.00001   0.00001   2.12611
    A9        2.03544   0.00000  -0.00002   0.00003   0.00001   2.03545
   A10        2.12164  -0.00000   0.00001  -0.00003  -0.00002   2.12161
   A11        2.12610   0.00000  -0.00001   0.00001   0.00001   2.12611
   A12        2.03544   0.00000  -0.00002   0.00003   0.00001   2.03545
    D1       -3.05476  -0.00004  -0.00016  -0.00067  -0.00083  -3.05559
    D2        0.13068  -0.00099  -0.00008  -0.00034  -0.00042   0.13027
    D3        0.13068  -0.00099  -0.00008  -0.00034  -0.00042   0.13027
    D4       -2.96706  -0.00194   0.00000   0.00000  -0.00000  -2.96706
    D5       -3.12921  -0.00052  -0.00096   0.00030  -0.00066  -3.12987
    D6        0.01547  -0.00046   0.00081   0.00028   0.00109   0.01656
    D7       -0.03276   0.00045  -0.00104  -0.00005  -0.00109  -0.03385
    D8        3.11193   0.00052   0.00072  -0.00007   0.00065   3.11258
    D9       -0.03276   0.00045  -0.00104  -0.00005  -0.00109  -0.03385
   D10        3.11193   0.00052   0.00072  -0.00007   0.00065   3.11258
   D11       -3.12921  -0.00052  -0.00096   0.00030  -0.00066  -3.12987
   D12        0.01547  -0.00046   0.00081   0.00028   0.00109   0.01656
         Item               Value     Threshold  Converged?
 Maximum Force            0.000056     0.000450     YES
 RMS     Force            0.000021     0.000300     YES
 Maximum Displacement     0.001463     0.001800     YES
 RMS     Displacement     0.000525     0.001200     YES
 Predicted change in Energy=-1.290376D-07
 Optimization completed.
    -- Stationary point found.
                           ----------------------------
                           !   Optimized Parameters   !
                           ! (Angstroms and Degrees)  !
 --------------------------                            --------------------------
 ! Name  Definition              Value          Derivative Info.                !
 --------------------------------------------------------------------------------
 ! R1    R(1,2)                  1.0905         -DE/DX =    0.0                 !
 ! R2    R(1,3)                  1.458          -DE/DX =    0.0001              !
 ! R3    R(1,8)                  1.3405         -DE/DX =    0.0                 !
 ! R4    R(3,4)                  1.0905         -DE/DX =    0.0                 !
 ! R5    R(3,5)                  1.3405         -DE/DX =    0.0                 !
 ! R6    R(5,6)                  1.0879         -DE/DX =    0.0                 !
 ! R7    R(5,7)                  1.0858         -DE/DX =    0.0                 !
 ! R8    R(8,9)                  1.0879         -DE/DX =    0.0                 !
 ! R9    R(8,10)                 1.0858         -DE/DX =    0.0                 !
 ! A1    A(2,1,3)              116.2539         -DE/DX =    0.0                 !
 ! A2    A(2,1,8)              119.3961         -DE/DX =    0.0001              !
 ! A3    A(3,1,8)              124.3032         -DE/DX =    0.0                 !
 ! A4    A(1,3,4)              116.2539         -DE/DX =    0.0                 !
 ! A5    A(1,3,5)              124.3032         -DE/DX =    0.0                 !
 ! A6    A(4,3,5)              119.3961         -DE/DX =    0.0001              !
 ! A7    A(3,5,6)              121.5609         -DE/DX =    0.0                 !
 ! A8    A(3,5,7)              121.8168         -DE/DX =    0.0                 !
 ! A9    A(6,5,7)              116.6221         -DE/DX =    0.0                 !
 ! A10   A(1,8,9)              121.5609         -DE/DX =    0.0                 !
 ! A11   A(1,8,10)             121.8168         -DE/DX =    0.0                 !
 ! A12   A(9,8,10)             116.6221         -DE/DX =    0.0                 !
 ! D1    D(2,1,3,4)           -175.0247         -DE/DX =    0.0                 !
 ! D2    D(2,1,3,5)              7.4877         -DE/DX =   -0.001               !
 ! D3    D(8,1,3,4)              7.4877         -DE/DX =   -0.001               !
 ! D4    D(8,1,3,5)           -170.0            -DE/DX =   -0.0019              !
 ! D5    D(2,1,8,9)           -179.2906         -DE/DX =   -0.0005              !
 ! D6    D(2,1,8,10)             0.8866         -DE/DX =   -0.0005              !
 ! D7    D(3,1,8,9)             -1.8768         -DE/DX =    0.0005              !
 ! D8    D(3,1,8,10)           178.3004         -DE/DX =    0.0005              !
 ! D9    D(1,3,5,6)             -1.8768         -DE/DX =    0.0005              !
 ! D10   D(1,3,5,7)            178.3004         -DE/DX =    0.0005              !
 ! D11   D(4,3,5,6)           -179.2906         -DE/DX =   -0.0005              !
 ! D12   D(4,3,5,7)              0.8866         -DE/DX =   -0.0005              !
 --------------------------------------------------------------------------------
 Iteration  1 RMS(Cart)=  0.03235015 RMS(Int)=  0.02163641
 Iteration  2 RMS(Cart)=  0.00094255 RMS(Int)=  0.02162968
 Iteration  3 RMS(Cart)=  0.00000699 RMS(Int)=  0.02162968
 Iteration  4 RMS(Cart)=  0.00000023 RMS(Int)=  0.02162968
 Iteration  1 RMS(Cart)=  0.01646675 RMS(Int)=  0.01095087
 Iteration  2 RMS(Cart)=  0.00837080 RMS(Int)=  0.01223868
 Iteration  3 RMS(Cart)=  0.00424402 RMS(Int)=  0.01370323
 Iteration  4 RMS(Cart)=  0.00214833 RMS(Int)=  0.01458943
 Iteration  5 RMS(Cart)=  0.00108655 RMS(Int)=  0.01506733
 Iteration  6 RMS(Cart)=  0.00054929 RMS(Int)=  0.01531569
 Iteration  7 RMS(Cart)=  0.00027762 RMS(Int)=  0.01544285
 Iteration  8 RMS(Cart)=  0.00014030 RMS(Int)=  0.01550751
 Iteration  9 RMS(Cart)=  0.00007090 RMS(Int)=  0.01554029
 Iteration 10 RMS(Cart)=  0.00003583 RMS(Int)=  0.01555688
 Iteration 11 RMS(Cart)=  0.00001810 RMS(Int)=  0.01556527
 Iteration 12 RMS(Cart)=  0.00000915 RMS(Int)=  0.01556951
 Iteration 13 RMS(Cart)=  0.00000462 RMS(Int)=  0.01557166
 Iteration 14 RMS(Cart)=  0.00000234 RMS(Int)=  0.01557274
 Iteration 15 RMS(Cart)=  0.00000118 RMS(Int)=  0.01557329
 Iteration 16 RMS(Cart)=  0.00000060 RMS(Int)=  0.01557356
 GradGradGradGradGradGradGradGradGradGradGradGradGradGradGradGradGradGrad

                          Input orientation:                          
 ---------------------------------------------------------------------
 Center     Atomic      Atomic             Coordinates (Angstroms)
 Number     Number       Type             X           Y           Z
 ---------------------------------------------------------------------
      1          6           0       -0.323327    0.653409    0.138885
      2          1           0       -1.412976    0.654963    0.181968
      3          6           0        0.323327   -0.653409    0.138885
      4          1           0        1.412976   -0.654963    0.181968
      5          6           0       -0.321528   -1.813021   -0.053708
      6          1           0       -1.404119   -1.852764   -0.154657
      7          1           0        0.207538   -2.759455   -0.112488
      8          6           0        0.321528    1.813021   -0.053708
      9          1           0        1.404119    1.852764   -0.154657
     10          1           0       -0.207538    2.759455   -0.112488
 ---------------------------------------------------------------------
                    Distance matrix (angstroms):
                    1          2          3          4          5
     1  C    0.000000
     2  H    1.090501   0.000000
     3  C    1.458058   2.174497   0.000000
     4  H    2.174497   3.114788   1.090501   0.000000
     5  C    2.473938   2.708827   1.340757   2.098843   0.000000
     6  H    2.745028   2.530235   2.123367   3.079621   1.088013
     7  H    3.463040   3.790912   2.124153   2.443087   1.085865
     8  C    1.340757   2.098843   2.473938   2.708827   3.682621
     9  H    2.123367   3.079621   2.745028   2.530235   4.052903
    10  H    2.124153   2.443087   3.463040   3.790912   4.574274
                    6          7          8          9         10
     6  H    0.000000
     7  H    1.849677   0.000000
     8  C    4.052903   4.574274   0.000000
     9  H    4.649423   4.765097   1.088013   0.000000
    10  H    4.765097   5.534497   1.085865   1.849677   0.000000
 Stoichiometry    C4H6
 Framework group  C2[X(C4H6)]
 Deg. of freedom    13
 Full point group                 C2      NOp   2
 Omega: Change in point group or standard orientation.

 Old FWG=C01  [X(C4H6)]
 New FWG=C02  [X(C4H6)]
 Largest Abelian subgroup         C2      NOp   2
 Largest concise Abelian subgroup C2      NOp   2
                         Standard orientation:                         
 ---------------------------------------------------------------------
 Center     Atomic      Atomic             Coordinates (Angstroms)
 Number     Number       Type             X           Y           Z
 ---------------------------------------------------------------------
      1          6           0        0.600133   -0.413913    0.110493
      2          1           0        1.553194    0.114302    0.153576
      3          6           0       -0.600133    0.413913    0.110493
      4          1           0       -1.553194   -0.114302    0.153576
      5          6           0       -0.600133    1.740765   -0.082101
      6          1           0        0.326689    2.301642   -0.183050
      7          1           0       -1.522484    2.310781   -0.140881
      8          6           0        0.600133   -1.740765   -0.082101
      9          1           0       -0.326689   -2.301642   -0.183050
     10          1           0        1.522484   -2.310781   -0.140881
 ---------------------------------------------------------------------
 Rotational constants (GHZ):          40.6049069           4.4287887           4.0319685
 Standard basis: 6-31G(d) (6D, 7F)
 There are    36 symmetry adapted cartesian basis functions of A   symmetry.
 There are    36 symmetry adapted cartesian basis functions of B   symmetry.
 There are    36 symmetry adapted basis functions of A   symmetry.
 There are    36 symmetry adapted basis functions of B   symmetry.
    72 basis functions,   136 primitive gaussians,    72 cartesian basis functions
    15 alpha electrons       15 beta electrons
       nuclear repulsion energy       103.5844995901 Hartrees.
 NAtoms=   10 NActive=   10 NUniq=    5 SFac= 4.00D+00 NAtFMM=   60 NAOKFM=F Big=F
 Integral buffers will be    131072 words long.
 Raffenetti 2 integral format.
 Two-electron integral symmetry is turned on.
 One-electron integrals computed using PRISM.
 NBasis=    72 RedAO= T EigKep=  3.85D-03  NBF=    36    36
 NBsUse=    72 1.00D-06 EigRej= -1.00D+00 NBFU=    36    36
 Initial guess from the checkpoint file:  "/home/sonatak/tfm/butadiene/scan_19files/butadiene_scan.chk"
 B after Tr=     0.000000    0.000000   -0.000000
         Rot=    0.830880   -0.000000    0.000000    0.556451 Ang=  67.62 deg.
 Initial guess orbital symmetries:
       Occupied  (A) (B) (A) (B) (A) (B) (A) (B) (B) (A) (A) (B)
                 (A) (A) (B)
       Virtual   (A) (B) (B) (A) (B) (A) (B) (A) (B) (A) (B) (B)
                 (A) (A) (B) (A) (B) (B) (A) (B) (A) (A) (B) (A)
                 (B) (A) (B) (B) (A) (A) (B) (A) (B) (A) (B) (A)
                 (B) (A) (A) (A) (B) (B) (B) (B) (A) (A) (B) (A)
                 (B) (A) (B) (B) (A) (A) (B) (A) (B)
 Keep R1 ints in memory in symmetry-blocked form, NReq=5189357.
 Requested convergence on RMS density matrix=1.00D-08 within 128 cycles.
 Requested convergence on MAX density matrix=1.00D-06.
 Requested convergence on             energy=1.00D-06.
 No special actions if energy rises.
 SCF Done:  E(RB3LYP) =  -155.990624862     A.U. after    9 cycles
            NFock=  9  Conv=0.38D-08     -V/T= 2.0103
 Calling FoFJK, ICntrl=      2127 FMM=F ISym2X=1 I1Cent= 0 IOpClX= 0 NMat=1 NMatS=1 NMatT=0.
 ***** Axes restored to original set *****
 -------------------------------------------------------------------
 Center     Atomic                   Forces (Hartrees/Bohr)
 Number     Number              X              Y              Z
 -------------------------------------------------------------------
      1        6          -0.001262478    0.000658329   -0.006246864
      2        1           0.000005329   -0.000286302    0.001982454
      3        6           0.001262478   -0.000658329   -0.006246864
      4        1          -0.000005329    0.000286302    0.001982454
      5        6          -0.000684475   -0.000022611    0.003769550
      6        1          -0.000030190   -0.000099638    0.000529483
      7        1           0.000045931    0.000057061   -0.000034624
      8        6           0.000684475    0.000022611    0.003769550
      9        1           0.000030190    0.000099638    0.000529483
     10        1          -0.000045931   -0.000057061   -0.000034624
 -------------------------------------------------------------------
 Cartesian Forces:  Max     0.006246864 RMS     0.002000649

 GradGradGradGradGradGradGradGradGradGradGradGradGradGradGradGradGradGrad
 Berny optimization.
 FormGI is forming the generalized inverse of G from B-inverse, IUseBI=4.
 Internal  Forces:  Max     0.004698418 RMS     0.001250982
 Search for a local minimum.
 Step number   1 out of a maximum of   43 on scan point     3 out of    19
 All quantities printed in internal units (Hartrees-Bohrs-Radians)
 Mixed Optimization -- RFO/linear search
 Second derivative matrix not updated -- first step.
 ITU=  0
     Eigenvalues ---    0.01711   0.02152   0.02871   0.02875   0.02875
     Eigenvalues ---    0.03785   0.15828   0.15933   0.15998   0.16000
     Eigenvalues ---    0.16000   0.16000   0.22021   0.22030   0.34758
     Eigenvalues ---    0.34758   0.35053   0.35054   0.35303   0.35303
     Eigenvalues ---    0.36959   0.56777   0.570801000.000001000.00000
     Eigenvalues --- 1000.000001000.000001000.000001000.000001000.00000
     Eigenvalues --- 1000.000001000.000001000.00000
 RFO step:  Lambda=-2.92503012D-04 EMin= 1.71120197D-02
 Linear search not attempted -- first point.
 Iteration  1 RMS(Cart)=  0.01899635 RMS(Int)=  0.00040446
 Iteration  2 RMS(Cart)=  0.00035856 RMS(Int)=  0.00011309
 Iteration  3 RMS(Cart)=  0.00000004 RMS(Int)=  0.00011309
 Iteration  1 RMS(Cart)=  0.00001087 RMS(Int)=  0.00000721
 Iteration  2 RMS(Cart)=  0.00000550 RMS(Int)=  0.00000806
 Iteration  3 RMS(Cart)=  0.00000279 RMS(Int)=  0.00000903
 Iteration  4 RMS(Cart)=  0.00000141 RMS(Int)=  0.00000962
 Iteration  5 RMS(Cart)=  0.00000072 RMS(Int)=  0.00000993
 ClnCor:  largest displacement from symmetrization is 3.71D-08 for atom     9.
 Variable       Old X    -DE/DX   Delta X   Delta X   Delta X     New X
                                 (Linear)    (Quad)   (Total)
    R1        2.06075   0.00007   0.00000   0.00019   0.00019   2.06094
    R2        2.75533   0.00065   0.00000   0.00232   0.00232   2.75766
    R3        2.53366  -0.00023   0.00000  -0.00069  -0.00069   2.53297
    R4        2.06075   0.00007   0.00000   0.00019   0.00019   2.06094
    R5        2.53366  -0.00023   0.00000  -0.00069  -0.00069   2.53297
    R6        2.05605  -0.00002   0.00000  -0.00007  -0.00007   2.05598
    R7        2.05199  -0.00003   0.00000  -0.00005  -0.00005   2.05194
    R8        2.05605  -0.00002   0.00000  -0.00007  -0.00007   2.05598
    R9        2.05199  -0.00003   0.00000  -0.00005  -0.00005   2.05194
    A1        2.03134  -0.00056   0.00000  -0.00155  -0.00182   2.02952
    A2        2.07719   0.00062   0.00000   0.00446   0.00421   2.08140
    A3        2.16744   0.00027   0.00000   0.00182   0.00156   2.16900
    A4        2.03134  -0.00056   0.00000  -0.00155  -0.00182   2.02952
    A5        2.16744   0.00027   0.00000   0.00182   0.00156   2.16900
    A6        2.07719   0.00062   0.00000   0.00446   0.00421   2.08140
    A7        2.12174   0.00009   0.00000   0.00050   0.00050   2.12223
    A8        2.12618  -0.00011   0.00000  -0.00069  -0.00070   2.12549
    A9        2.03526   0.00002   0.00000   0.00017   0.00017   2.03543
   A10        2.12174   0.00009   0.00000   0.00050   0.00050   2.12223
   A11        2.12618  -0.00011   0.00000  -0.00069  -0.00070   2.12549
   A12        2.03526   0.00002   0.00000   0.00017   0.00017   2.03543
    D1       -3.05336   0.00151   0.00000   0.08572   0.08566  -2.96770
    D2        0.21865  -0.00160   0.00000   0.04286   0.04283   0.26148
    D3        0.21865  -0.00160   0.00000   0.04286   0.04283   0.26148
    D4       -2.79253  -0.00470   0.00000   0.00000   0.00000  -2.79252
    D5       -3.08587  -0.00202   0.00000  -0.03212  -0.03217  -3.11804
    D6        0.06056  -0.00159   0.00000  -0.02735  -0.02740   0.03316
    D7       -0.07789   0.00108   0.00000   0.01137   0.01142  -0.06647
    D8        3.06854   0.00151   0.00000   0.01613   0.01619   3.08473
    D9       -0.07789   0.00108   0.00000   0.01137   0.01142  -0.06647
   D10        3.06854   0.00151   0.00000   0.01613   0.01619   3.08473
   D11       -3.08587  -0.00202   0.00000  -0.03212  -0.03217  -3.11804
   D12        0.06056  -0.00159   0.00000  -0.02735  -0.02740   0.03316
         Item               Value     Threshold  Converged?
 Maximum Force            0.001557     0.000450     NO 
 RMS     Force            0.000468     0.000300     NO 
 Maximum Displacement     0.061238     0.001800     NO 
 RMS     Displacement     0.019009     0.001200     NO 
 Predicted change in Energy=-1.491052D-04
 GradGradGradGradGradGradGradGradGradGradGradGradGradGradGradGradGradGrad

                          Input orientation:                          
[...]
           R2           1.45749   1.45799   1.45979   1.46319   1.46741
           R3           1.34056   1.34048   1.34017   1.33956   1.33884
           R4           1.09047   1.09050   1.09058   1.09065   1.09079
           R5           1.34056   1.34048   1.34017   1.33956   1.33884
           R6           1.08792   1.08793   1.08796   1.08799   1.08803
           R7           1.08580   1.08581   1.08586   1.08595   1.08606
           R8           1.08792   1.08793   1.08796   1.08799   1.08803
           R9           1.08580   1.08581   1.08586   1.08595   1.08606
           A1         116.24619 116.25388 116.26750 116.27398 116.35643
           A2         119.44266 119.39610 119.28574 119.17378 118.94363
           A3         124.31115 124.30318 124.26818 124.19702 124.19918
           A4         116.24619 116.25388 116.26750 116.27398 116.35643
           A5         124.31115 124.30318 124.26818 124.19702 124.19918
           A6         119.44266 119.39610 119.28574 119.17378 118.94363
           A7         121.54594 121.56086 121.59438 121.64083 121.73487
           A8         121.83156 121.81679 121.77682 121.73203 121.62217
           A9         116.62249 116.62213 116.62663 116.62206 116.63500
           A10        121.54594 121.56086 121.59438 121.64083 121.73487
           A11        121.83156 121.81679 121.77682 121.73203 121.62217
           A12        116.62249 116.62213 116.62663 116.62206 116.63500
           D1         180.00000-175.02469-169.81398-163.84144-156.45693
           D2           0.00000   7.48766  15.09308  23.07932  31.77161
           D3           0.00000   7.48766  15.09308  23.07932  31.77161
           D4         180.00000-170.00000-159.99985-149.99992-139.99986
           D5         180.00000-179.29060-178.68622-178.11982-177.68634
           D6           0.00000   0.88656   1.86807   2.72803   3.37521
           D7           0.00000  -1.87680  -3.73174  -5.22813  -6.11331
           D8         180.00000 178.30035 176.82256 175.61972 174.94823
           D9           0.00000  -1.87680  -3.73174  -5.22813  -6.11331
           D10        180.00000 178.30035 176.82256 175.61972 174.94823
           D11        180.00000-179.29060-178.68622-178.11982-177.68634
           D12          0.00000   0.88656   1.86807   2.72803   3.37521
                           6         7         8         9        10
     Eigenvalues --    -0.98459  -0.98228  -0.98064  -0.98009  -0.98058
           R1           1.09084   1.09099   1.09130   1.09185   1.09241
           R2           1.47356   1.48023   1.48595   1.48791   1.48559
           R3           1.33776   1.33641   1.33506   1.33421   1.33426
           R4           1.09084   1.09099   1.09130   1.09185   1.09241
           R5           1.33776   1.33641   1.33506   1.33421   1.33426
           R6           1.08807   1.08794   1.08779   1.08754   1.08738
           R7           1.08624   1.08652   1.08678   1.08698   1.08699
           R8           1.08807   1.08794   1.08779   1.08754   1.08738
           R9           1.08624   1.08652   1.08678   1.08698   1.08699
           A1         116.47769 116.63450 116.67345 116.44867 116.11463
           A2         118.84088 118.75725 118.85257 118.90511 118.93117
           A3         124.15635 124.26365 124.39932 124.63809 124.83150
           A4         116.47769 116.63450 116.67345 116.44867 116.11463
           A5         124.15635 124.26365 124.39932 124.63809 124.83150
           A6         118.84088 118.75725 118.85257 118.90511 118.93117
           A7         121.77594 121.87668 121.83303 121.78878 121.62645
           A8         121.59560 121.47594 121.50084 121.46823 121.54630
           A9         116.61872 116.64043 116.66495 116.74212 116.82237
           A10        121.77594 121.87668 121.83303 121.78878 121.62645
           A11        121.59560 121.47594 121.50084 121.46823 121.54630
           A12        116.61872 116.64043 116.66495 116.74212 116.82237
           D1        -146.86462-133.68764-116.37593 -97.89505 -81.82818
           D2          41.56776  53.15624  66.81206  81.05252  94.08595
           D3          41.56776  53.15624  66.81206  81.05252  94.08595
           D4        -129.99987-119.99988-109.99995 -99.99990 -89.99991
           D5        -177.50708-177.77428-178.74030 179.83085 178.41727
           D6           3.66740   3.21685   1.66685  -0.51919  -2.41211
           D7          -6.12514  -4.75324  -1.99284   0.90721   2.60936
           D8         175.04933 176.23789 178.41431-179.44283-178.22002
           D9          -6.12514  -4.75324  -1.99284   0.90721   2.60936
           D10        175.04933 176.23789 178.41431-179.44283-178.22002
           D11       -177.50708-177.77428-178.74030 179.83085 178.41727
           D12          3.66740   3.21685   1.66685  -0.51919  -2.41211
                          11        12        13        14        15
     Eigenvalues --    -0.98172  -0.98313  -0.98451  -0.98562  -0.98629
           R1           1.09252   1.09233   1.09194   1.09149   1.09099
           R2           1.48198   1.47809   1.47467   1.47210   1.47062
           R3           1.33491   1.33581   1.33682   1.33781   1.33857
           R4           1.09252   1.09233   1.09194   1.09149   1.09099
           R5           1.33491   1.33581   1.33682   1.33781   1.33857
           R6           1.08723   1.08719   1.08717   1.08720   1.08721
           R7           1.08699   1.08688   1.08674   1.08653   1.08638
           R8           1.08723   1.08719   1.08717   1.08720   1.08721
           R9           1.08699   1.08688   1.08674   1.08653   1.08638
           A1         115.94211 115.93441 116.02552 116.03081 115.90239
           A2         118.94658 118.98246 118.98263 118.92755 118.77280
           A3         124.88977 124.84467 124.80197 124.92644 125.27485
           A4         115.94211 115.93441 116.02552 116.03081 115.90239
           A5         124.88977 124.84467 124.80197 124.92644 125.27485
           A6         118.94658 118.98246 118.98263 118.92755 118.77280
           A7         121.52459 121.42654 121.37340 121.39875 121.56849
           A8         121.57545 121.62364 121.64848 121.63725 121.57151
           A9         116.89386 116.94524 116.97633 116.96396 116.85894
           A10        121.52459 121.42654 121.37340 121.39875 121.56849
           A11        121.57545 121.62364 121.64848 121.63725 121.57151
           A12        116.89386 116.94524 116.97633 116.96396 116.85894
           D1         -69.02601 -58.61989 -49.84333 -42.08035 -34.77213
           D2         105.48694 115.69010 125.07833 133.95980 142.61390
           D3         105.48694 115.69010 125.07833 133.95980 142.61390
           D4         -80.00011 -69.99991 -60.00001 -50.00006 -40.00008
           D5         177.38632 176.66585 176.24444 176.08366 176.21687
           D6          -3.54060  -4.13687  -4.25720  -3.98212  -3.39740
           D7           3.02538   2.51595   1.46151   0.14923  -1.10050
           D8        -177.90155-178.28677-179.04014-179.91655 179.28523
           D9           3.02538   2.51595   1.46151   0.14923  -1.10050
           D10       -177.90155-178.28677-179.04014-179.91655 179.28523
           D11        177.38632 176.66585 176.24444 176.08366 176.21687
           D12         -3.54060  -4.13687  -4.25720  -3.98212  -3.39740
                          16        17        18        19
     Eigenvalues --    -0.98649  -0.98633  -0.98607  -0.98595
           R1           1.09054   1.09014   1.08978   1.08965
           R2           1.47009   1.47040   1.47104   1.47133
           R3           1.33921   1.33959   1.33986   1.33992
           R4           1.09054   1.09014   1.08978   1.08965
           R5           1.33921   1.33959   1.33986   1.33992
           R6           1.08724   1.08726   1.08725   1.08726
           R7           1.08615   1.08600   1.08588   1.08585
           R8           1.08724   1.08726   1.08725   1.08726
           R9           1.08615   1.08600   1.08588   1.08585
           A1         115.62291 115.27223 114.97744 114.86141
           A2         118.51816 118.23002 117.97980 117.88021
           A3         125.84632 126.49672 127.04275 127.25837
           A4         115.62291 115.27223 114.97744 114.86141
           A5         125.84632 126.49672 127.04275 127.25837
           A6         118.51816 118.23002 117.97980 117.88021
           A7         121.81640 122.12743 122.40000 122.51610
           A8         121.46184 121.33717 121.21066 121.17013
           A9         116.71777 116.53034 116.38700 116.31378
           A10        121.81640 122.12743 122.40000 122.51610
           A11        121.46184 121.33717 121.21066 121.17013
           A12        116.71777 116.53034 116.38700 116.31378
           D1         -27.36327 -19.24235 -10.04506   0.01764
           D2         151.31840 160.37890 169.97752-179.99111
           D3         151.31840 160.37890 169.97752-179.99111
           D4         -29.99993 -19.99985  -9.99989   0.00013
           D5         176.64875 177.43728 178.57483 179.96045
           D6          -2.60017  -1.71543  -0.84788  -0.02249
           D7          -1.99842  -2.17398  -1.44835  -0.03056
           D8         178.75267 178.67331 179.12894-180.01351
           D9          -1.99842  -2.17398  -1.44835  -0.03056
           D10        178.75267 178.67331 179.12894-180.01351
           D11        176.64875 177.43728 178.57483 179.96045
           D12         -2.60017  -1.71543  -0.84788  -0.02249
 GradGradGradGradGradGradGradGradGradGradGradGradGradGradGradGradGradGrad

                          Input orientation:                          
 ---------------------------------------------------------------------
 Center     Atomic      Atomic             Coordinates (Angstroms)
 Number     Number       Type             X           Y           Z
 ---------------------------------------------------------------------
      1          6           0       -0.055259    0.733588    0.623153
      2          1           0       -0.089518    1.190421    1.611822
      3          6           0        0.055259   -0.733588    0.623153
      4          1           0        0.089518   -1.190421    1.611822
      5          6           0        0.116193   -1.542499   -0.443309
      6          1           0        0.087472   -1.167716   -1.463523
      7          1           0        0.197514   -2.619155   -0.328144
      8          6           0       -0.116193    1.542499   -0.443309
      9          1           0       -0.087472    1.167716   -1.463523
     10          1           0       -0.197514    2.619155   -0.328144
 ---------------------------------------------------------------------
                    Distance matrix (angstroms):
                    1          2          3          4          5
     1  C    0.000000
     2  H    1.089649   0.000000
     3  C    1.471334   2.168004   0.000000
     4  H    2.168004   2.387565   1.089649   0.000000
     5  C    2.519387   3.425600   1.339922   2.085242   0.000000
     6  H    2.826579   3.879418   2.131601   3.075430   1.087256
     7  H    3.494245   4.284708   2.116734   2.411723   1.085847
     8  C    1.339922   2.085242   2.519387   3.425600   3.093739
     9  H    2.131601   3.075430   2.826579   3.879418   2.903030
    10  H    2.116734   2.411723   3.494245   4.284708   4.175049
                    6          7          8          9         10
     6  H    0.000000
     7  H    1.846042   0.000000
     8  C    2.903030   4.175049   0.000000
     9  H    2.341975   3.963671   1.087256   0.000000
    10  H    3.963671   5.253183   1.085847   1.846042   0.000000
 Stoichiometry    C4H6
 Framework group  C2[X(C4H6)]
 Deg. of freedom    13
 Full point group                 C2      NOp   2
 Largest Abelian subgroup         C2      NOp   2
 Largest concise Abelian subgroup C2      NOp   2
                         Standard orientation:                         
 ---------------------------------------------------------------------
 Center     Atomic      Atomic             Coordinates (Angstroms)
 Number     Number       Type             X           Y           Z
 ---------------------------------------------------------------------
      1          6           0       -0.000000   -0.735667    0.563205
      2          1           0       -0.000153   -1.193782    1.551874
      3          6           0        0.000000    0.735667    0.563205
      4          1           0        0.000153    1.193782    1.551874
      5          6           0       -0.000000    1.546869   -0.503257
      6          1           0        0.000487    1.170987   -1.523472
      7          1           0       -0.000219    2.626591   -0.388092
      8          6           0        0.000000   -1.546869   -0.503257
      9          1           0       -0.000487   -1.170987   -1.523472
     10          1           0        0.000219   -2.626591   -0.388092
 ---------------------------------------------------------------------
 Rotational constants (GHZ):          21.4890737           5.6179062           4.4535984

 **********************************************************************

            Population analysis using the SCF Density.

 **********************************************************************

 Orbital symmetries:
       Occupied  (A) (B) (B) (A) (A) (B) (A) (B) (A) (A) (B) (B)
                 (A) (B) (A)
       Virtual   (B) (A) (A) (A) (B) (B) (B) (A) (A) (B) (B) (A)
                 (B) (A) (B) (A) (A) (B) (A) (B) (A) (A) (B) (B)
                 (A) (A) (B) (B) (B) (A) (B) (A) (B) (B) (B) (A)
                 (A) (B) (A) (A) (A) (B) (B) (A) (A) (B) (B) (B)
                 (A) (A) (A) (B) (B) (A) (B) (A) (B)
 The electronic state is 1-A.
 Alpha  occ. eigenvalues --  -10.19201 -10.19170 -10.18282 -10.18282  -0.79825
 Alpha  occ. eigenvalues --   -0.72471  -0.61823  -0.52662  -0.48756  -0.43656
 Alpha  occ. eigenvalues --   -0.41616  -0.35979  -0.34786  -0.31708  -0.22733
 Alpha virt. eigenvalues --   -0.03015   0.09643   0.10084   0.11472   0.15316
 Alpha virt. eigenvalues --    0.19206   0.20166   0.21004   0.30620   0.34060
 Alpha virt. eigenvalues --    0.43255   0.46728   0.52744   0.53219   0.58678
 Alpha virt. eigenvalues --    0.59541   0.62691   0.64100   0.67720   0.68958
 Alpha virt. eigenvalues --    0.69326   0.83376   0.86035   0.88106   0.89352
 Alpha virt. eigenvalues --    0.93021   0.95616   0.98680   1.05512   1.07749
 Alpha virt. eigenvalues --    1.18331   1.23853   1.34036   1.45806   1.48272
 Alpha virt. eigenvalues --    1.52120   1.65586   1.75242   1.77715   1.87983
 Alpha virt. eigenvalues --    1.96073   2.00786   2.10516   2.16323   2.21990
 Alpha virt. eigenvalues --    2.25179   2.27872   2.54179   2.54998   2.55361
 Alpha virt. eigenvalues --    2.62115   2.86561   3.07915   4.06619   4.14857
 Alpha virt. eigenvalues --    4.20071   4.48263
          Condensed to atoms (all electrons):
               1          2          3          4          5          6
     1  C    4.752987   0.364297   0.448171  -0.043441  -0.038765  -0.012457
     2  H    0.364297   0.612880  -0.043441  -0.006888   0.006463   0.000017
     3  C    0.448171  -0.043441   4.752987   0.364297   0.653691  -0.030975
     4  H   -0.043441  -0.006888   0.364297   0.612880  -0.057727   0.006019
     5  C   -0.038765   0.006463   0.653691  -0.057727   5.057244   0.364827
     6  H   -0.012457   0.000017  -0.030975   0.006019   0.364827   0.566524
     7  H    0.004446  -0.000167  -0.020413  -0.008378   0.364741  -0.043079
     8  C    0.653691  -0.057727  -0.038765   0.006463  -0.021286   0.005193
     9  H   -0.030975   0.006019  -0.012457   0.000017   0.005193   0.003285
    10  H   -0.020413  -0.008378   0.004446  -0.000167   0.000081  -0.000102
               7          8          9         10
     1  C    0.004446   0.653691  -0.030975  -0.020413
     2  H   -0.000167  -0.057727   0.006019  -0.008378
     3  C   -0.020413  -0.038765  -0.012457   0.004446
     4  H   -0.008378   0.006463   0.000017  -0.000167
     5  C    0.364741  -0.021286   0.005193   0.000081
     6  H   -0.043079   0.005193   0.003285  -0.000102
     7  H    0.558538   0.000081  -0.000102   0.000001
     8  C    0.000081   5.057244   0.364827   0.364741
     9  H   -0.000102   0.364827   0.566524  -0.043079
    10  H    0.000001   0.364741  -0.043079   0.558538
 Mulliken charges:
               1
     1  C   -0.077541
     2  H    0.126924
     3  C   -0.077541
     4  H    0.126924
     5  C   -0.334462
     6  H    0.140749
     7  H    0.144331
     8  C   -0.334462
     9  H    0.140749
    10  H    0.144331
 Sum of Mulliken charges =  -0.00000
 Mulliken charges with hydrogens summed into heavy atoms:
               1
     1  C    0.049383
     3  C    0.049383
     5  C   -0.049383
     8  C   -0.049383
 Electronic spatial extent (au):  <R**2>=            308.6214
 Charge=             -0.0000 electrons
 Dipole moment (field-independent basis, Debye):
    X=             -0.0000    Y=             -0.0000    Z=              0.0852  Tot=              0.0852
 Quadrupole moment (field-independent basis, Debye-Ang):
   XX=            -27.9021   YY=            -22.7351   ZZ=            -22.4610
   XY=              0.0000   XZ=              0.0000   YZ=              0.0000
 Traceless Quadrupole moment (field-independent basis, Debye-Ang):
   XX=             -3.5360   YY=              1.6310   ZZ=              1.9051
   XY=              0.0000   XZ=              0.0000   YZ=              0.0000
 Octapole moment (field-independent basis, Debye-Ang**2):
  XXX=              0.0000  YYY=             -0.0000  ZZZ=              0.2951  XYY=              0.0000
  XXY=              0.0000  XXZ=              0.2105  XZZ=              0.0000  YZZ=             -0.0000
  YYZ=              0.1134  XYZ=             -0.0005
 Hexadecapole moment (field-independent basis, Debye-Ang**3):
 XXXX=            -28.9115 YYYY=           -264.1588 ZZZZ=            -95.2440 XXXY=             -0.0007
 XXXZ=             -0.0000 YYYX=             -0.0073 YYYZ=              0.0000 ZZZX=             -0.0000
 ZZZY=              0.0000 XXYY=            -59.1167 XXZZ=            -23.0038 YYZZ=            -64.1095
 XXYZ=             -0.0000 YYXZ=             -0.0000 ZZXY=              0.0029
 N-N= 1.044505084775D+02 E-N=-5.693510423513D+02  KE= 1.543941346916D+02
 Symmetry A    KE= 7.840344194125D+01
 Symmetry B    KE= 7.599069275033D+01
 1\1\GINC-BLADI29\Scan\RB3LYP\6-31G(d)\C4H6\ROOT\07-May-2019\0\\# opt=m
 odredundant b3lyp/6-31g* geom=connectivity\\Butadiene scan\\0,1\C,-0.0
 552590097,0.7335884872,0.6231534084\H,-0.0895182595,1.1904213934,1.611
 8221316\C,0.0552590052,-0.7335884877,0.6231534077\H,0.089518249,-1.190
 4213953,1.6118221304\C,0.1161930729,-1.5424992839,-0.4433085828\H,0.08
 7472498,-1.167715737,-1.4635233599\H,0.1975137785,-2.6191546338,-0.328
 1435818\C,-0.1161930708,1.5424992849,-0.4433085813\H,-0.0874724897,1.1
 677157395,-1.4635233588\H,-0.1975137772,2.6191546347,-0.3281435793\\Ve
 rsion=EM64L-G16RevB.01\State=1-A\HF=-155.9921396,-155.9917947,-155.990
 7772,-155.9891418,-155.9870058,-155.9845907,-155.982283,-155.9806377,-
 155.9800898,-155.9805761,-155.9817152,-155.9831288,-155.9845111,-155.9
 85618,-155.9862877,-155.9864857,-155.9863348,-155.9860745,-155.9859513
 \RMSD=8.342e-09,1.767e-09,6.537e-09,1.574e-09,1.925e-09,1.930e-09,9.76
 2e-09,3.940e-09,5.261e-09,2.704e-09,2.520e-09,6.775e-09,5.272e-09,5.42
 4e-09,2.712e-09,4.820e-09,7.616e-09,2.557e-09,2.790e-09\PG=C02 [X(C4H6
 )]\\@


 THOSE WHO ARE UNABLE TO LEARN FROM PAST MEETINGS
 ARE CONDEMNED TO REPEAT THEM.
 Job cpu time:       0 days  0 hours 13 minutes 34.7 seconds.
 Elapsed time:       0 days  0 hours 13 minutes 58.5 seconds.
 File lengths (MBytes):  RWF=     10 Int=      0 D2E=      0 Chk=      3 Scr=      1
 Normal termination of Gaussian 16 at Tue May  7 10:25:11 2019.
