FCHK created with read_scan from butadiene_scan.fchk
Scan      RB3LYP                                                      6-31G(d)  
Number of atoms                            I               10
Charge                                     I                0
Multiplicity                               I                1
Atomic numbers                             I   N=          10
           6           1           6           1           6           1
           1           6           1           1
Nuclear charges                            R   N=          10
  6.00000000E+00  1.00000000E+00  6.00000000E+00  1.00000000E+00  6.00000000E+00
  1.00000000E+00  1.00000000E+00  6.00000000E+00  1.00000000E+00  1.00000000E+00
Current cartesian coordinates              R   N=          30
 -7.61965694E-07 -1.39020875E+00  1.06430345E+00 -2.88789792E-04 -2.25592192E+00
  2.93261656E+00  7.61965694E-07  1.39020875E+00  1.06430345E+00  2.88789792E-04
  2.25592192E+00  2.93261656E+00 -7.61965694E-07  2.92315947E+00 -9.51017633E-01
  9.20812040E-04  2.21284528E+00 -2.87894415E+00 -4.13279685E-04  4.96353848E+00
 -7.33387321E-01  7.61965694E-07 -2.92315947E+00 -9.51017633E-01 -9.20812040E-04
 -2.21284528E+00 -2.87894415E+00  4.13279685E-04 -4.96353848E+00 -7.33387321E-01
Integer atomic weights                     I   N=          30
           0          -1           1           0          -2           2
           0           1           1           0           2           2
           0           2           0           0           2          -2
           0           4           0           0          -2           0
           0          -2          -2           0          -4           0
Real atomic weights                        R   N=          30
 -7.61965694E-07 -1.39020875E+00  1.06430345E+00 -2.88789792E-04 -2.25592192E+00
  2.93261656E+00  7.61965694E-07  1.39020875E+00  1.06430345E+00  2.88789792E-04
  2.25592192E+00  2.93261656E+00 -7.61965694E-07  2.92315947E+00 -9.51017633E-01
  9.20812040E-04  2.21284528E+00 -2.87894415E+00 -4.13279685E-04  4.96353848E+00
 -7.33387321E-01  7.61965694E-07 -2.92315947E+00 -9.51017633E-01 -9.20812040E-04
 -2.21284528E+00 -2.87894415E+00  4.13279685E-04 -4.96353848E+00 -7.33387321E-01
Total Energy                               R     -1.559859510000000E+02
Cartesian Gradient                         R   N=          30
 -9.28555135E-03  1.42235210E-04  1.94259615E-04  2.07642462E-03 -1.74967397E-04
 -2.10871442E-04  9.28555135E-03 -1.42235210E-04  1.94259615E-04 -2.07642462E-03
  1.74967397E-04 -2.10871442E-04 -1.87671010E-03 -1.64882748E-04  6.43162002E-05
  1.67107359E-04 -2.20803673E-04 -6.65168671E-05 -6.39313500E-04  1.46901111E-05
  1.88124949E-05  1.87671010E-03  1.64882749E-04  6.43162001E-05 -1.67107359E-04
  2.20803673E-04 -6.65168671E-05  6.39313500E-04 -1.46901111E-05  1.88124949E-05
