FCHK created with read_scan from butadiene_scan.fchk
Scan      RB3LYP                                                      6-31G(d)  
Number of atoms                            I               10
Charge                                     I                0
Multiplicity                               I                1
Atomic numbers                             I   N=          10
           6           1           6           1           6           1
           1           6           1           1
Nuclear charges                            R   N=          10
  6.00000000E+00  1.00000000E+00  6.00000000E+00  1.00000000E+00  6.00000000E+00
  1.00000000E+00  1.00000000E+00  6.00000000E+00  1.00000000E+00  1.00000000E+00
Current cartesian coordinates              R   N=          30
  1.11458562E+00 -8.34408821E-01  4.84545969E-01  2.91021306E+00  3.05759697E-02
  1.01068990E+00 -1.11458562E+00  8.34408821E-01  4.84545969E-01 -2.91021306E+00
 -3.05759697E-02  1.01068990E+00 -1.11458562E+00  3.20277953E+00 -3.99550574E-01
  6.13973386E-01  4.12633308E+00 -1.02157527E+00 -2.83789522E+00  4.31355607E+00
 -4.99086995E-01  1.11458562E+00 -3.20277953E+00 -3.99550574E-01 -6.13973386E-01
 -4.12633308E+00 -1.02157527E+00  2.83789522E+00 -4.31355607E+00 -4.99086995E-01
Integer atomic weights                     I   N=          30
           1           0           0           2           0           1
          -1           0           0          -2           0           1
          -1           3           0           0           4          -1
          -2           4           0           1          -3           0
           0          -4          -1           2          -4           0
Real atomic weights                        R   N=          30
  1.11458562E+00 -8.34408821E-01  4.84545969E-01  2.91021306E+00  3.05759697E-02
  1.01068990E+00 -1.11458562E+00  8.34408821E-01  4.84545969E-01 -2.91021306E+00
 -3.05759697E-02  1.01068990E+00 -1.11458562E+00  3.20277953E+00 -3.99550574E-01
  6.13973386E-01  4.12633308E+00 -1.02157527E+00 -2.83789522E+00  4.31355607E+00
 -4.99086995E-01  1.11458562E+00 -3.20277953E+00 -3.99550574E-01 -6.13973386E-01
 -4.12633308E+00 -1.02157527E+00  2.83789522E+00 -4.31355607E+00 -4.99086995E-01
Total Energy                               R     -1.559845910000000E+02
Cartesian Gradient                         R   N=          30
 -6.06469513E-03 -3.92878469E-03  1.02748404E-02  3.66897449E-04 -1.58074886E-04
 -2.45547834E-03  6.06469513E-03  3.92878469E-03  1.02748404E-02 -3.66897449E-04
  1.58074886E-04 -2.45547834E-03 -2.32070741E-03 -2.45804999E-03 -7.26838284E-03
 -1.06570646E-05 -2.28516837E-04 -3.42099496E-04  2.93301976E-05  1.90282996E-05
 -2.08879694E-04  2.32070741E-03  2.45804999E-03 -7.26838284E-03  1.06570646E-05
  2.28516837E-04 -3.42099496E-04 -2.93301976E-05 -1.90282996E-05 -2.08879694E-04
