FCHK created with read_scan from butadiene_scan.fchk
Scan      RB3LYP                                                      6-31G(d)  
Number of atoms                            I               10
Charge                                     I                0
Multiplicity                               I                1
Atomic numbers                             I   N=          10
           6           1           6           1           6           1
           1           6           1           1
Nuclear charges                            R   N=          10
  6.00000000E+00  1.00000000E+00  6.00000000E+00  1.00000000E+00  6.00000000E+00
  1.00000000E+00  1.00000000E+00  6.00000000E+00  1.00000000E+00  1.00000000E+00
Current cartesian coordinates              R   N=          30
  4.68465067E-01 -1.30764899E+00  1.04828807E+00  1.18278596E+00 -1.99840404E+00
  2.85372686E+00 -4.68465067E-01  1.30764899E+00  1.04828807E+00 -1.18278596E+00
  1.99840404E+00  2.85372686E+00 -4.68465067E-01  2.88191516E+00 -9.33203686E-01
  3.12850388E-01  2.33328014E+00 -2.75249814E+00 -1.23139481E+00  4.78213269E+00
 -7.91735017E-01  4.68465067E-01 -2.88191516E+00 -9.33203686E-01 -3.12850388E-01
 -2.33328014E+00 -2.75249814E+00  1.23139481E+00 -4.78213269E+00 -7.91735017E-01
Integer atomic weights                     I   N=          30
           0          -1           1           1          -1           2
           0           1           1          -1           1           2
           0           2           0           0           2          -2
          -1           4           0           0          -2           0
           0          -2          -2           1          -4           0
Real atomic weights                        R   N=          30
  4.68465067E-01 -1.30764899E+00  1.04828807E+00  1.18278596E+00 -1.99840404E+00
  2.85372686E+00 -4.68465067E-01  1.30764899E+00  1.04828807E+00 -1.18278596E+00
  1.99840404E+00  2.85372686E+00 -4.68465067E-01  2.88191516E+00 -9.33203686E-01
  3.12850388E-01  2.33328014E+00 -2.75249814E+00 -1.23139481E+00  4.78213269E+00
 -7.91735017E-01  4.68465067E-01 -2.88191516E+00 -9.33203686E-01 -3.12850388E-01
 -2.33328014E+00 -2.75249814E+00  1.23139481E+00 -4.78213269E+00 -7.91735017E-01
Total Energy                               R     -1.559864860000000E+02
Cartesian Gradient                         R   N=          30
 -5.20560678E-03 -2.13532103E-03  7.63605736E-04  1.91191923E-03  6.94699527E-04
 -4.07316310E-04  5.20560678E-03  2.13532103E-03  7.63605736E-04 -1.91191923E-03
 -6.94699527E-04 -4.07316310E-04 -2.12417818E-04 -5.22766685E-04 -1.17860325E-04
 -2.65157829E-04 -4.62987951E-04 -1.83605352E-04 -3.77335859E-04 -4.26168995E-05
 -5.48237480E-05  2.12417818E-04  5.22766685E-04 -1.17860325E-04  2.65157829E-04
  4.62987951E-04 -1.83605352E-04  3.77335859E-04  4.26168995E-05 -5.48237480E-05
